<?xml version="1.0" encoding="UTF-8"?>

<!-- generated on 2025-04-22 21:13:51 by Eclipse SUMO sumo Version 1.22.0
<sumoConfiguration xmlns:xsi="http://www.w3.org/2001/XMLSchema-instance" xsi:noNamespaceSchemaLocation="http://sumo.dlr.de/xsd/sumoConfiguration.xsd">

    <input>
        <net-file value="region.net.xml"/>
        <route-files value="region.rou.xml"/>
        <additional-files value="region.add.xml"/>
    </input>

    <output>
        <emission-output value="emissions.xml"/>
    </output>

    <time>
        <begin value="0"/>
        <end value="3600"/>
    </time>

</sumoConfiguration>
-->

<emission-export xmlns:xsi="http://www.w3.org/2001/XMLSchema-instance" xsi:noNamespaceSchemaLocation="http://sumo.dlr.de/xsd/emission_file.xsd">
    <timestep time="0.00">
        <vehicle id="f1.0" eclass="HBEFA3/PC_G_EU4" CO2="2624.72" CO="164.78" HC="0.81" NOx="1.20" PMx="0.07" fuel="837.22" electricity="0.00" noise="55.94" route="!f1" type="car" waiting="0.00" lane="edge1_0" pos="5.10" speed="0.00" angle="90.00" x="5.10" y="-1.60"/>
    </timestep>
    <timestep time="1.00">
        <vehicle id="f1.0" eclass="HBEFA3/PC_G_EU4" CO2="4097.93" CO="152.03" HC="0.79" NOx="1.83" PMx="0.09" fuel="1307.09" electricity="0.00" noise="68.37" route="!f1" type="car" waiting="0.00" lane="edge1_0" pos="7.70" speed="2.60" angle="90.00" x="7.70" y="-1.60"/>
    </timestep>
    <timestep time="2.00">
        <vehicle id="f1.0" eclass="HBEFA3/PC_G_EU4" CO2="4925.05" CO="137.04" HC="0.74" NOx="2.16" PMx="0.10" fuel="1570.88" electricity="0.00" noise="67.52" route="!f1" type="car" waiting="0.00" lane="edge1_0" pos="12.49" speed="4.79" angle="90.00" x="12.49" y="-1.60"/>
    </timestep>
    <timestep time="3.00">
        <vehicle id="f1.0" eclass="HBEFA3/PC_G_EU4" CO2="4953.24" CO="115.79" HC="0.64" NOx="2.13" PMx="0.10" fuel="1579.87" electricity="0.00" noise="66.07" route="!f1" type="car" waiting="0.00" lane="edge1_0" pos="18.96" speed="6.47" angle="90.00" x="18.96" y="-1.60"/>
    </timestep>
    <timestep time="4.00">
        <vehicle id="f1.0" eclass="HBEFA3/PC_G_EU4" CO2="5828.38" CO="113.68" HC="0.66" NOx="2.49" PMx="0.11" fuel="1858.99" electricity="0.00" noise="67.18" route="!f1" type="car" waiting="0.00" lane="edge1_0" pos="27.18" speed="8.22" angle="90.00" x="27.18" y="-1.60"/>
    </timestep>
    <timestep time="5.00">
        <vehicle id="f1.0" eclass="HBEFA3/PC_G_EU4" CO2="6543.86" CO="111.12" HC="0.66" NOx="2.79" PMx="0.13" fuel="2087.18" electricity="0.00" noise="67.90" route="!f1" type="car" waiting="0.00" lane="edge1_0" pos="37.11" speed="9.93" angle="90.00" x="37.11" y="-1.60"/>
    </timestep>
    <timestep time="6.00">
        <vehicle id="f1.0" eclass="HBEFA3/PC_G_EU4" CO2="6193.30" CO="91.86" HC="0.57" NOx="2.59" PMx="0.12" fuel="1975.37" electricity="0.00" noise="67.27" route="!f1" type="car" waiting="0.00" lane="edge1_0" pos="48.41" speed="11.30" angle="90.00" x="48.41" y="-1.60"/>
    </timestep>
    <timestep time="7.00">
        <vehicle id="f1.0" eclass="HBEFA3/PC_G_EU4" CO2="10089.91" CO="155.92" HC="0.95" NOx="4.37" PMx="0.21" fuel="3218.17" electricity="0.00" noise="71.71" route="!f1" type="car" waiting="0.00" lane="edge1_0" pos="61.93" speed="13.51" angle="90.00" x="61.93" y="-1.60"/>
    </timestep>
    <timestep time="8.00">
        <vehicle id="f1.0" eclass="HBEFA3/PC_G_EU4" CO2="3039.55" CO="9.50" HC="0.11" NOx="1.04" PMx="0.03" fuel="969.49" electricity="0.00" noise="64.94" route="!f1" type="car" waiting="0.00" lane="edge1_0" pos="75.64" speed="13.71" angle="90.00" x="75.64" y="-1.60"/>
    </timestep>
    <timestep time="9.00">
        <vehicle id="f1.0" eclass="HBEFA3/PC_G_EU4" CO2="5880.17" CO="62.67" HC="0.43" NOx="2.36" PMx="0.10" fuel="1875.49" electricity="0.00" noise="67.55" route="!f1" type="car" waiting="0.00" lane="edge1_0" pos="90.26" speed="14.62" angle="90.00" x="90.26" y="-1.60"/>
    </timestep>
    <timestep time="10.00">
        <vehicle id="f1.0" eclass="HBEFA3/PC_G_EU4" CO2="0.00" CO="0.00" HC="0.00" NOx="0.00" PMx="0.00" fuel="0.00" electricity="0.00" noise="63.06" route="!f1" type="car" waiting="0.00" lane="edge2_0" pos="4.01" speed="13.84" angle="90.00" x="104.01" y="-1.60"/>
    </timestep>
    <timestep time="11.00">
        <vehicle id="f1.0" eclass="HBEFA3/PC_G_EU4" CO2="2443.19" CO="0.00" HC="0.04" NOx="0.75" PMx="0.01" fuel="779.28" electricity="0.00" noise="64.63" route="!f1" type="car" waiting="0.00" lane="edge2_0" pos="17.88" speed="13.87" angle="90.00" x="117.88" y="-1.60"/>
    </timestep>
    <timestep time="12.00">
        <vehicle id="f1.0" eclass="HBEFA3/PC_G_EU4" CO2="2918.29" CO="5.08" HC="0.09" NOx="0.97" PMx="0.03" fuel="930.81" electricity="0.00" noise="65.04" route="!f1" type="car" waiting="0.00" lane="edge2_0" pos="31.91" speed="14.03" angle="90.00" x="131.91" y="-1.60"/>
    </timestep>
    <timestep time="13.00">
        <vehicle id="f1.0" eclass="HBEFA3/PC_G_EU4" CO2="3046.33" CO="6.63" HC="0.10" NOx="1.03" PMx="0.03" fuel="971.65" electricity="0.00" noise="65.23" route="!f1" type="car" waiting="0.00" lane="edge2_0" pos="46.12" speed="14.21" angle="90.00" x="146.12" y="-1.60"/>
    </timestep>
    <timestep time="14.00">
        <vehicle id="f1.0" eclass="HBEFA3/PC_G_EU4" CO2="0.00" CO="0.00" HC="0.00" NOx="0.00" PMx="0.00" fuel="0.00" electricity="0.00" noise="63.40" route="!f1" type="car" waiting="0.00" lane="edge2_0" pos="59.83" speed="13.71" angle="90.00" x="159.83" y="-1.60"/>
    </timestep>
    <timestep time="15.00">
        <vehicle id="f1.0" eclass="HBEFA3/PC_G_EU4" CO2="2356.08" CO="0.00" HC="0.03" NOx="0.72" PMx="0.01" fuel="751.49" electricity="0.00" noise="64.47" route="!f1" type="car" waiting="0.00" lane="edge2_0" pos="73.55" speed="13.72" angle="90.00" x="173.55" y="-1.60"/>
    </timestep>
    <timestep time="16.00">
        <vehicle id="f1.0" eclass="HBEFA3/PC_G_EU4" CO2="4199.47" CO="30.39" HC="0.24" NOx="1.57" PMx="0.06" fuel="1339.44" electricity="0.00" noise="66.05" route="!f1" type="car" waiting="0.00" lane="edge2_0" pos="87.76" speed="14.21" angle="90.00" x="187.76" y="-1.60"/>
    </timestep>
    <timestep time="17.00"/>
    <timestep time="18.00">
        <vehicle id="f1.1" eclass="HBEFA3/PC_G_EU4" CO2="2624.72" CO="164.78" HC="0.81" NOx="1.20" PMx="0.07" fuel="837.22" electricity="0.00" noise="55.94" route="!f1" type="car" waiting="0.00" lane="edge1_0" pos="5.10" speed="0.00" angle="90.00" x="5.10" y="-1.60"/>
    </timestep>
    <timestep time="19.00">
        <vehicle id="f1.1" eclass="HBEFA3/PC_G_EU4" CO2="3452.81" CO="147.92" HC="0.75" NOx="1.54" PMx="0.08" fuel="1101.33" electricity="0.00" noise="65.58" route="!f1" type="car" waiting="0.00" lane="edge1_0" pos="7.11" speed="2.01" angle="90.00" x="7.11" y="-1.60"/>
    </timestep>
    <timestep time="20.00">
        <vehicle id="f1.1" eclass="HBEFA3/PC_G_EU4" CO2="3756.69" CO="129.76" HC="0.68" NOx="1.64" PMx="0.08" fuel="1198.24" electricity="0.00" noise="64.39" route="!f1" type="car" waiting="0.00" lane="edge1_0" pos="10.72" speed="3.61" angle="90.00" x="10.72" y="-1.60"/>
    </timestep>
    <timestep time="21.00">
        <vehicle id="f1.1" eclass="HBEFA3/PC_G_EU4" CO2="5518.35" CO="135.47" HC="0.75" NOx="2.41" PMx="0.11" fuel="1760.11" electricity="0.00" noise="68.11" route="!f1" type="car" waiting="0.00" lane="edge1_0" pos="16.55" speed="5.83" angle="90.00" x="16.55" y="-1.60"/>
    </timestep>
    <timestep time="22.00">
        <vehicle id="f1.1" eclass="HBEFA3/PC_G_EU4" CO2="5032.36" CO="106.85" HC="0.60" NOx="2.14" PMx="0.10" fuel="1605.10" electricity="0.00" noise="65.86" route="!f1" type="car" waiting="0.00" lane="edge1_0" pos="23.92" speed="7.36" angle="90.00" x="23.92" y="-1.60"/>
    </timestep>
    <timestep time="23.00">
        <vehicle id="f1.1" eclass="HBEFA3/PC_G_EU4" CO2="6965.38" CO="125.32" HC="0.74" NOx="3.00" PMx="0.14" fuel="2221.63" electricity="0.00" noise="68.78" route="!f1" type="car" waiting="0.00" lane="edge1_0" pos="33.28" speed="9.36" angle="90.00" x="33.28" y="-1.60"/>
    </timestep>
    <timestep time="24.00">
        <vehicle id="f1.1" eclass="HBEFA3/PC_G_EU4" CO2="7091.00" CO="112.26" HC="0.68" NOx="3.02" PMx="0.14" fuel="2261.69" electricity="0.00" noise="68.48" route="!f1" type="car" waiting="0.00" lane="edge1_0" pos="44.35" speed="11.07" angle="90.00" x="44.35" y="-1.60"/>
    </timestep>
    <timestep time="25.00">
        <vehicle id="f1.1" eclass="HBEFA3/PC_G_EU4" CO2="7194.44" CO="102.60" HC="0.64" NOx="3.03" PMx="0.14" fuel="2294.67" electricity="0.00" noise="68.50" route="!f1" type="car" waiting="0.00" lane="edge1_0" pos="56.93" speed="12.58" angle="90.00" x="56.93" y="-1.60"/>
    </timestep>
    <timestep time="26.00">
        <vehicle id="f1.1" eclass="HBEFA3/PC_G_EU4" CO2="1457.58" CO="0.00" HC="0.00" NOx="0.33" PMx="0.00" fuel="464.92" electricity="0.00" noise="62.90" route="!f1" type="car" waiting="0.00" lane="edge1_0" pos="69.27" speed="12.35" angle="90.00" x="69.27" y="-1.60"/>
    </timestep>
    <timestep time="27.00">
        <vehicle id="f1.1" eclass="HBEFA3/PC_G_EU4" CO2="0.00" CO="0.00" HC="0.00" NOx="0.00" PMx="0.00" fuel="0.00" electricity="0.00" noise="62.31" route="!f1" type="car" waiting="0.00" lane="edge1_0" pos="81.25" speed="11.97" angle="90.00" x="81.25" y="-1.60"/>
    </timestep>
    <timestep time="28.00">
        <vehicle id="f1.1" eclass="HBEFA3/PC_G_EU4" CO2="3446.74" CO="27.11" HC="0.20" NOx="1.27" PMx="0.04" fuel="1099.36" electricity="0.00" noise="64.52" route="!f1" type="car" waiting="0.00" lane="edge1_0" pos="93.60" speed="12.35" angle="90.00" x="93.60" y="-1.60"/>
    </timestep>
    <timestep time="29.00">
        <vehicle id="f1.1" eclass="HBEFA3/PC_G_EU4" CO2="4144.49" CO="37.48" HC="0.27" NOx="1.58" PMx="0.06" fuel="1321.90" electricity="0.00" noise="65.42" route="!f1" type="car" waiting="0.00" lane="edge2_0" pos="6.41" speed="12.91" angle="90.00" x="106.41" y="-1.60"/>
    </timestep>
    <timestep time="30.00">
        <vehicle id="f1.1" eclass="HBEFA3/PC_G_EU4" CO2="0.00" CO="0.00" HC="0.00" NOx="0.00" PMx="0.00" fuel="0.00" electricity="0.00" noise="62.69" route="!f1" type="car" waiting="0.00" lane="edge2_0" pos="18.93" speed="12.52" angle="90.00" x="118.93" y="-1.60"/>
    </timestep>
    <timestep time="31.00">
        <vehicle id="f1.1" eclass="HBEFA3/PC_G_EU4" CO2="2490.87" CO="5.66" HC="0.08" NOx="0.81" PMx="0.02" fuel="794.48" electricity="0.00" noise="63.85" route="!f1" type="car" waiting="0.00" lane="edge2_0" pos="31.53" speed="12.60" angle="90.00" x="131.53" y="-1.60"/>
    </timestep>
    <timestep time="32.00">
        <vehicle id="f1.1" eclass="HBEFA3/PC_G_EU4" CO2="1587.30" CO="0.00" HC="0.00" NOx="0.39" PMx="0.00" fuel="506.29" electricity="0.00" noise="63.04" route="!f1" type="car" waiting="0.00" lane="edge2_0" pos="43.93" speed="12.40" angle="90.00" x="143.93" y="-1.60"/>
    </timestep>
    <timestep time="33.00">
        <vehicle id="f1.1" eclass="HBEFA3/PC_G_EU4" CO2="2080.29" CO="0.00" HC="0.04" NOx="0.62" PMx="0.01" fuel="663.53" electricity="0.00" noise="63.37" route="!f1" type="car" waiting="0.00" lane="edge2_0" pos="56.29" speed="12.36" angle="90.00" x="156.29" y="-1.60"/>
    </timestep>
    <timestep time="34.00">
        <vehicle id="f1.1" eclass="HBEFA3/PC_G_EU4" CO2="2412.67" CO="5.37" HC="0.08" NOx="0.78" PMx="0.02" fuel="769.54" electricity="0.00" noise="63.67" route="!f1" type="car" waiting="0.00" lane="edge2_0" pos="68.70" speed="12.42" angle="90.00" x="168.70" y="-1.60"/>
    </timestep>
    <timestep time="35.00">
        <vehicle id="f1.1" eclass="HBEFA3/PC_G_EU4" CO2="0.00" CO="0.00" HC="0.00" NOx="0.00" PMx="0.00" fuel="0.00" electricity="0.00" noise="61.78" route="!f1" type="car" waiting="0.00" lane="edge2_0" pos="80.54" speed="11.84" angle="90.00" x="180.54" y="-1.60"/>
    </timestep>
    <timestep time="36.00">
        <vehicle id="f1.1" eclass="HBEFA3/PC_G_EU4" CO2="1948.67" CO="0.76" HC="0.04" NOx="0.57" PMx="0.00" fuel="621.55" electricity="0.00" noise="62.85" route="!f1" type="car" waiting="0.00" lane="edge2_0" pos="92.30" speed="11.76" angle="90.00" x="192.30" y="-1.60"/>
        <vehicle id="f1.2" eclass="HBEFA3/PC_G_EU4" CO2="2624.72" CO="164.78" HC="0.81" NOx="1.20" PMx="0.07" fuel="837.22" electricity="0.00" noise="55.94" route="!f1" type="car" waiting="0.00" lane="edge1_0" pos="5.10" speed="0.00" angle="90.00" x="5.10" y="-1.60"/>
    </timestep>
    <timestep time="37.00">
        <vehicle id="f1.2" eclass="HBEFA3/PC_G_EU4" CO2="3173.90" CO="147.37" HC="0.75" NOx="1.42" PMx="0.07" fuel="1012.37" electricity="0.00" noise="64.03" route="!f1" type="car" waiting="0.00" lane="edge1_0" pos="6.79" speed="1.69" angle="90.00" x="6.79" y="-1.60"/>
    </timestep>
    <timestep time="38.00">
        <vehicle id="f1.2" eclass="HBEFA3/PC_G_EU4" CO2="4643.52" CO="142.27" HC="0.76" NOx="2.05" PMx="0.10" fuel="1481.09" electricity="0.00" noise="67.69" route="!f1" type="car" waiting="0.00" lane="edge1_0" pos="10.80" speed="4.00" angle="90.00" x="10.80" y="-1.60"/>
    </timestep>
    <timestep time="39.00">
        <vehicle id="f1.2" eclass="HBEFA3/PC_G_EU4" CO2="4055.38" CO="111.45" HC="0.60" NOx="1.73" PMx="0.08" fuel="1293.50" electricity="0.00" noise="64.17" route="!f1" type="car" waiting="0.00" lane="edge1_0" pos="16.16" speed="5.36" angle="90.00" x="16.16" y="-1.60"/>
    </timestep>
    <timestep time="40.00">
        <vehicle id="f1.2" eclass="HBEFA3/PC_G_EU4" CO2="6836.73" CO="139.93" HC="0.80" NOx="2.98" PMx="0.14" fuel="2180.60" electricity="0.00" noise="69.54" route="!f1" type="car" waiting="0.00" lane="edge1_0" pos="23.88" speed="7.72" angle="90.00" x="23.88" y="-1.60"/>
    </timestep>
    <timestep time="41.00">
        <vehicle id="f1.2" eclass="HBEFA3/PC_G_EU4" CO2="8497.52" CO="149.45" HC="0.88" NOx="3.70" PMx="0.18" fuel="2710.30" electricity="0.00" noise="70.91" route="!f1" type="car" waiting="0.00" lane="edge1_0" pos="34.02" speed="10.14" angle="90.00" x="34.02" y="-1.60"/>
    </timestep>
    <timestep time="42.00">
        <vehicle id="f1.2" eclass="HBEFA3/PC_G_EU4" CO2="9721.08" CO="155.60" HC="0.94" NOx="4.22" PMx="0.21" fuel="3100.54" electricity="0.00" noise="71.59" route="!f1" type="car" waiting="0.00" lane="edge1_0" pos="46.46" speed="12.45" angle="90.00" x="46.46" y="-1.60"/>
    </timestep>
    <timestep time="43.00">
        <vehicle id="f1.2" eclass="HBEFA3/PC_G_EU4" CO2="7311.24" CO="96.74" HC="0.62" NOx="3.05" PMx="0.14" fuel="2331.93" electricity="0.00" noise="68.69" route="!f1" type="car" waiting="0.00" lane="edge1_0" pos="60.29" speed="13.83" angle="90.00" x="60.29" y="-1.60"/>
    </timestep>
    <timestep time="44.00">
        <vehicle id="f1.2" eclass="HBEFA3/PC_G_EU4" CO2="1438.61" CO="0.00" HC="0.00" NOx="0.29" PMx="0.00" fuel="458.87" electricity="0.00" noise="63.81" route="!f1" type="car" waiting="0.00" lane="edge1_0" pos="73.87" speed="13.58" angle="90.00" x="73.87" y="-1.60"/>
    </timestep>
    <timestep time="45.00">
        <vehicle id="f1.2" eclass="HBEFA3/PC_G_EU4" CO2="0.00" CO="0.00" HC="0.00" NOx="0.00" PMx="0.00" fuel="0.00" electricity="0.00" noise="63.52" route="!f1" type="car" waiting="0.00" lane="edge1_0" pos="87.17" speed="13.30" angle="90.00" x="87.17" y="-1.60"/>
    </timestep>
    <timestep time="46.00">
        <vehicle id="f1.2" eclass="HBEFA3/PC_G_EU4" CO2="4423.52" CO="36.99" HC="0.27" NOx="1.69" PMx="0.07" fuel="1410.90" electricity="0.00" noise="66.08" route="!f1" type="car" waiting="0.00" lane="edge2_0" pos="0.95" speed="13.88" angle="90.00" x="100.95" y="-1.60"/>
    </timestep>
    <timestep time="47.00">
        <vehicle id="f1.2" eclass="HBEFA3/PC_G_EU4" CO2="0.00" CO="0.00" HC="0.00" NOx="0.00" PMx="0.00" fuel="0.00" electricity="0.00" noise="61.69" route="!f1" type="car" waiting="0.00" lane="edge2_0" pos="13.71" speed="12.76" angle="90.00" x="113.71" y="-1.60"/>
    </timestep>
    <timestep time="48.00">
        <vehicle id="f1.2" eclass="HBEFA3/PC_G_EU4" CO2="4276.51" CO="37.39" HC="0.27" NOx="1.63" PMx="0.06" fuel="1364.01" electricity="0.00" noise="65.72" route="!f1" type="car" waiting="0.00" lane="edge2_0" pos="27.04" speed="13.33" angle="90.00" x="127.04" y="-1.60"/>
    </timestep>
    <timestep time="49.00">
        <vehicle id="f1.2" eclass="HBEFA3/PC_G_EU4" CO2="3119.32" CO="12.09" HC="0.13" NOx="1.08" PMx="0.03" fuel="994.93" electricity="0.00" noise="64.91" route="!f1" type="car" waiting="0.00" lane="edge2_0" pos="40.61" speed="13.56" angle="90.00" x="140.61" y="-1.60"/>
    </timestep>
    <timestep time="50.00">
        <vehicle id="f1.2" eclass="HBEFA3/PC_G_EU4" CO2="0.00" CO="0.00" HC="0.00" NOx="0.00" PMx="0.00" fuel="0.00" electricity="0.00" noise="63.06" route="!f1" type="car" waiting="0.00" lane="edge2_0" pos="53.72" speed="13.12" angle="90.00" x="153.72" y="-1.60"/>
    </timestep>
    <timestep time="51.00">
        <vehicle id="f1.2" eclass="HBEFA3/PC_G_EU4" CO2="5229.57" CO="53.35" HC="0.37" NOx="2.07" PMx="0.09" fuel="1667.98" electricity="0.00" noise="66.77" route="!f1" type="car" waiting="0.00" lane="edge2_0" pos="67.64" speed="13.91" angle="90.00" x="167.64" y="-1.60"/>
    </timestep>
    <timestep time="52.00">
        <vehicle id="f1.2" eclass="HBEFA3/PC_G_EU4" CO2="0.00" CO="0.00" HC="0.00" NOx="0.00" PMx="0.00" fuel="0.00" electricity="0.00" noise="63.39" route="!f1" type="car" waiting="0.00" lane="edge2_0" pos="81.13" speed="13.49" angle="90.00" x="181.13" y="-1.60"/>
    </timestep>
    <timestep time="53.00">
        <vehicle id="f1.2" eclass="HBEFA3/PC_G_EU4" CO2="0.00" CO="0.00" HC="0.00" NOx="0.00" PMx="0.00" fuel="0.00" electricity="0.00" noise="63.41" route="!f1" type="car" waiting="0.00" lane="edge2_0" pos="94.33" speed="13.20" angle="90.00" x="194.33" y="-1.60"/>
    </timestep>
    <timestep time="54.00">
        <vehicle id="f1.3" eclass="HBEFA3/PC_G_EU4" CO2="2624.72" CO="164.78" HC="0.81" NOx="1.20" PMx="0.07" fuel="837.22" electricity="0.00" noise="55.94" route="!f1" type="car" waiting="0.00" lane="edge1_0" pos="5.10" speed="0.00" angle="90.00" x="5.10" y="-1.60"/>
    </timestep>
    <timestep time="55.00">
        <vehicle id="f1.3" eclass="HBEFA3/PC_G_EU4" CO2="3068.34" CO="147.53" HC="0.74" NOx="1.37" PMx="0.07" fuel="978.71" electricity="0.00" noise="63.35" route="!f1" type="car" waiting="0.00" lane="edge1_0" pos="6.65" speed="1.55" angle="90.00" x="6.65" y="-1.60"/>
    </timestep>
    <timestep time="56.00">
        <vehicle id="f1.3" eclass="HBEFA3/PC_G_EU4" CO2="4257.81" CO="139.41" HC="0.74" NOx="1.87" PMx="0.09" fuel="1358.07" electricity="0.00" noise="66.63" route="!f1" type="car" waiting="0.00" lane="edge1_0" pos="10.30" speed="3.65" angle="90.00" x="10.30" y="-1.60"/>
    </timestep>
    <timestep time="57.00">
        <vehicle id="f1.3" eclass="HBEFA3/PC_G_EU4" CO2="4201.98" CO="117.09" HC="0.63" NOx="1.81" PMx="0.08" fuel="1340.26" electricity="0.00" noise="64.74" route="!f1" type="car" waiting="0.00" lane="edge1_0" pos="15.47" speed="5.17" angle="90.00" x="15.47" y="-1.60"/>
    </timestep>
    <timestep time="58.00">
        <vehicle id="f1.3" eclass="HBEFA3/PC_G_EU4" CO2="4399.66" CO="103.92" HC="0.58" NOx="1.87" PMx="0.08" fuel="1403.30" electricity="0.00" noise="64.67" route="!f1" type="car" waiting="0.00" lane="edge1_0" pos="21.98" speed="6.51" angle="90.00" x="21.98" y="-1.60"/>
    </timestep>
    <timestep time="59.00">
        <vehicle id="f1.3" eclass="HBEFA3/PC_G_EU4" CO2="6369.96" CO="122.30" HC="0.71" NOx="2.74" PMx="0.13" fuel="2031.72" electricity="0.00" noise="68.12" route="!f1" type="car" waiting="0.00" lane="edge1_0" pos="30.44" speed="8.46" angle="90.00" x="30.44" y="-1.60"/>
    </timestep>
    <timestep time="60.00">
        <vehicle id="f1.3" eclass="HBEFA3/PC_G_EU4" CO2="9267.17" CO="158.08" HC="0.94" NOx="4.05" PMx="0.20" fuel="2955.77" electricity="0.00" noise="71.63" route="!f1" type="car" waiting="0.00" lane="edge1_0" pos="41.39" speed="10.95" angle="90.00" x="41.39" y="-1.60"/>
    </timestep>
    <timestep time="61.00">
        <vehicle id="f1.3" eclass="HBEFA3/PC_G_EU4" CO2="10440.59" CO="164.50" HC="1.00" NOx="4.54" PMx="0.22" fuel="3330.02" electricity="0.00" noise="72.18" route="!f1" type="car" waiting="0.00" lane="edge1_0" pos="54.69" speed="13.30" angle="90.00" x="54.69" y="-1.60"/>
    </timestep>
    <timestep time="62.00">
        <vehicle id="f1.3" eclass="HBEFA3/PC_G_EU4" CO2="5222.95" CO="52.21" HC="0.36" NOx="2.06" PMx="0.09" fuel="1665.87" electricity="0.00" noise="66.82" route="!f1" type="car" waiting="0.00" lane="edge1_0" pos="68.77" speed="14.08" angle="90.00" x="68.77" y="-1.60"/>
    </timestep>
    <timestep time="63.00">
        <vehicle id="f1.3" eclass="HBEFA3/PC_G_EU4" CO2="1804.71" CO="0.00" HC="0.00" NOx="0.45" PMx="0.00" fuel="575.63" electricity="0.00" noise="64.27" route="!f1" type="car" waiting="0.00" lane="edge1_0" pos="82.71" speed="13.94" angle="90.00" x="82.71" y="-1.60"/>
    </timestep>
    <timestep time="64.00">
        <vehicle id="f1.3" eclass="HBEFA3/PC_G_EU4" CO2="3312.82" CO="12.24" HC="0.13" NOx="1.16" PMx="0.04" fuel="1056.64" electricity="0.00" noise="65.40" route="!f1" type="car" waiting="0.00" lane="edge1_0" pos="96.90" speed="14.19" angle="90.00" x="96.90" y="-1.60"/>
    </timestep>
    <timestep time="65.00">
        <vehicle id="f1.3" eclass="HBEFA3/PC_G_EU4" CO2="0.00" CO="0.00" HC="0.00" NOx="0.00" PMx="0.00" fuel="0.00" electricity="0.00" noise="63.68" route="!f1" type="car" waiting="0.00" lane="edge2_0" pos="10.60" speed="13.80" angle="90.00" x="110.60" y="-1.60"/>
    </timestep>
    <timestep time="66.00">
        <vehicle id="f1.3" eclass="HBEFA3/PC_G_EU4" CO2="6965.53" CO="83.23" HC="0.55" NOx="2.86" PMx="0.13" fuel="2221.66" electricity="0.00" noise="68.55" route="!f1" type="car" waiting="0.00" lane="edge2_0" pos="25.56" speed="14.96" angle="90.00" x="125.56" y="-1.60"/>
    </timestep>
    <timestep time="67.00">
        <vehicle id="f1.3" eclass="HBEFA3/PC_G_EU4" CO2="0.00" CO="0.00" HC="0.00" NOx="0.00" PMx="0.00" fuel="0.00" electricity="0.00" noise="63.15" route="!f1" type="car" waiting="0.00" lane="edge2_0" pos="39.66" speed="14.10" angle="90.00" x="139.66" y="-1.60"/>
    </timestep>
    <timestep time="68.00">
        <vehicle id="f1.3" eclass="HBEFA3/PC_G_EU4" CO2="6113.99" CO="65.31" HC="0.44" NOx="2.46" PMx="0.11" fuel="1950.07" electricity="0.00" noise="67.87" route="!f1" type="car" waiting="0.00" lane="edge2_0" pos="54.69" speed="15.04" angle="90.00" x="154.69" y="-1.60"/>
    </timestep>
    <timestep time="69.00">
        <vehicle id="f1.3" eclass="HBEFA3/PC_G_EU4" CO2="0.00" CO="0.00" HC="0.00" NOx="0.00" PMx="0.00" fuel="0.00" electricity="0.00" noise="63.88" route="!f1" type="car" waiting="0.00" lane="edge2_0" pos="69.16" speed="14.47" angle="90.00" x="169.16" y="-1.60"/>
    </timestep>
    <timestep time="70.00">
        <vehicle id="f1.3" eclass="HBEFA3/PC_G_EU4" CO2="4405.74" CO="30.45" HC="0.24" NOx="1.65" PMx="0.06" fuel="1405.23" electricity="0.00" noise="66.55" route="!f1" type="car" waiting="0.00" lane="edge2_0" pos="84.14" speed="14.97" angle="90.00" x="184.14" y="-1.60"/>
    </timestep>
    <timestep time="71.00">
        <vehicle id="f1.3" eclass="HBEFA3/PC_G_EU4" CO2="0.00" CO="0.00" HC="0.00" NOx="0.00" PMx="0.00" fuel="0.00" electricity="0.00" noise="64.40" route="!f1" type="car" waiting="0.00" lane="edge2_0" pos="98.77" speed="14.64" angle="90.00" x="198.77" y="-1.60"/>
    </timestep>
    <timestep time="72.00">
        <vehicle id="f1.4" eclass="HBEFA3/PC_G_EU4" CO2="2624.72" CO="164.78" HC="0.81" NOx="1.20" PMx="0.07" fuel="837.22" electricity="0.00" noise="55.94" route="!f1" type="car" waiting="0.00" lane="edge1_0" pos="5.10" speed="0.00" angle="90.00" x="5.10" y="-1.60"/>
    </timestep>
    <timestep time="73.00">
        <vehicle id="f1.4" eclass="HBEFA3/PC_G_EU4" CO2="3167.30" CO="147.38" HC="0.75" NOx="1.41" PMx="0.07" fuel="1010.27" electricity="0.00" noise="63.99" route="!f1" type="car" waiting="0.00" lane="edge1_0" pos="6.78" speed="1.68" angle="90.00" x="6.78" y="-1.60"/>
    </timestep>
    <timestep time="74.00">
        <vehicle id="f1.4" eclass="HBEFA3/PC_G_EU4" CO2="3889.90" CO="134.46" HC="0.70" NOx="1.71" PMx="0.08" fuel="1240.73" electricity="0.00" noise="65.19" route="!f1" type="car" waiting="0.00" lane="edge1_0" pos="10.26" speed="3.47" angle="90.00" x="10.26" y="-1.60"/>
    </timestep>
    <timestep time="75.00">
        <vehicle id="f1.4" eclass="HBEFA3/PC_G_EU4" CO2="5813.35" CO="140.98" HC="0.78" NOx="2.55" PMx="0.12" fuel="1854.20" electricity="0.00" noise="68.90" route="!f1" type="car" waiting="0.00" lane="edge1_0" pos="16.13" speed="5.88" angle="90.00" x="16.13" y="-1.60"/>
    </timestep>
    <timestep time="76.00">
        <vehicle id="f1.4" eclass="HBEFA3/PC_G_EU4" CO2="5729.30" CO="117.46" HC="0.67" NOx="2.46" PMx="0.11" fuel="1827.38" electricity="0.00" noise="67.21" route="!f1" type="car" waiting="0.00" lane="edge1_0" pos="23.82" speed="7.69" angle="90.00" x="23.82" y="-1.60"/>
    </timestep>
    <timestep time="77.00">
        <vehicle id="f1.4" eclass="HBEFA3/PC_G_EU4" CO2="6990.23" CO="123.12" HC="0.73" NOx="3.01" PMx="0.14" fuel="2229.55" electricity="0.00" noise="68.71" route="!f1" type="car" waiting="0.00" lane="edge1_0" pos="33.46" speed="9.64" angle="90.00" x="33.46" y="-1.60"/>
    </timestep>
    <timestep time="78.00">
        <vehicle id="f1.4" eclass="HBEFA3/PC_G_EU4" CO2="6948.35" CO="107.68" HC="0.66" NOx="2.94" PMx="0.14" fuel="2216.19" electricity="0.00" noise="68.26" route="!f1" type="car" waiting="0.00" lane="edge1_0" pos="44.73" speed="11.27" angle="90.00" x="44.73" y="-1.60"/>
    </timestep>
    <timestep time="79.00">
        <vehicle id="f1.4" eclass="HBEFA3/PC_G_EU4" CO2="10887.94" CO="171.34" HC="1.04" NOx="4.74" PMx="0.24" fuel="3472.71" electricity="0.00" noise="72.58" route="!f1" type="car" waiting="0.00" lane="edge1_0" pos="58.40" speed="13.67" angle="90.00" x="58.40" y="-1.60"/>
    </timestep>
    <timestep time="80.00">
        <vehicle id="f1.4" eclass="HBEFA3/PC_G_EU4" CO2="2243.99" CO="0.00" HC="0.02" NOx="0.67" PMx="0.01" fuel="715.74" electricity="0.00" noise="64.35" route="!f1" type="car" waiting="0.00" lane="edge1_0" pos="72.05" speed="13.65" angle="90.00" x="72.05" y="-1.60"/>
    </timestep>
    <timestep time="81.00">
        <vehicle id="f1.4" eclass="HBEFA3/PC_G_EU4" CO2="1776.65" CO="0.00" HC="0.00" NOx="0.45" PMx="0.00" fuel="566.69" electricity="0.00" noise="63.95" route="!f1" type="car" waiting="0.00" lane="edge1_0" pos="85.55" speed="13.50" angle="90.00" x="85.55" y="-1.60"/>
    </timestep>
    <timestep time="82.00">
        <vehicle id="f1.4" eclass="HBEFA3/PC_G_EU4" CO2="0.00" CO="0.00" HC="0.00" NOx="0.00" PMx="0.00" fuel="0.00" electricity="0.00" noise="55.70" route="!f1" type="car" waiting="0.00" lane="edge1_0" pos="94.55" speed="9.00" angle="90.00" x="94.55" y="-1.60"/>
    </timestep>
    <timestep time="83.00">
        <vehicle id="f1.4" eclass="HBEFA3/PC_G_EU4" CO2="0.00" CO="0.00" HC="0.00" NOx="0.00" PMx="0.00" fuel="0.00" electricity="0.00" noise="47.42" route="!f1" type="car" waiting="0.00" lane="edge1_0" pos="99.06" speed="4.50" angle="90.00" x="99.06" y="-1.60"/>
    </timestep>
    <timestep time="84.00">
        <vehicle id="f1.4" eclass="HBEFA3/PC_G_EU4" CO2="2624.72" CO="164.78" HC="0.81" NOx="1.20" PMx="0.07" fuel="837.22" electricity="0.00" noise="36.14" route="!f1" type="car" waiting="1.00" lane="edge1_0" pos="99.06" speed="0.00" angle="90.00" x="99.06" y="-1.60"/>
    </timestep>
    <timestep time="85.00">
        <vehicle id="f1.4" eclass="HBEFA3/PC_G_EU4" CO2="2624.72" CO="164.78" HC="0.81" NOx="1.20" PMx="0.07" fuel="837.22" electricity="0.00" noise="55.94" route="!f1" type="car" waiting="2.00" lane="edge1_0" pos="99.06" speed="0.00" angle="90.00" x="99.06" y="-1.60"/>
    </timestep>
    <timestep time="86.00">
        <vehicle id="f1.4" eclass="HBEFA3/PC_G_EU4" CO2="2624.72" CO="164.78" HC="0.81" NOx="1.20" PMx="0.07" fuel="837.22" electricity="0.00" noise="55.94" route="!f1" type="car" waiting="3.00" lane="edge1_0" pos="99.06" speed="0.00" angle="90.00" x="99.06" y="-1.60"/>
    </timestep>
    <timestep time="87.00">
        <vehicle id="f1.4" eclass="HBEFA3/PC_G_EU4" CO2="2624.72" CO="164.78" HC="0.81" NOx="1.20" PMx="0.07" fuel="837.22" electricity="0.00" noise="55.94" route="!f1" type="car" waiting="4.00" lane="edge1_0" pos="99.06" speed="0.00" angle="90.00" x="99.06" y="-1.60"/>
    </timestep>
    <timestep time="88.00">
        <vehicle id="f1.4" eclass="HBEFA3/PC_G_EU4" CO2="2624.72" CO="164.78" HC="0.81" NOx="1.20" PMx="0.07" fuel="837.22" electricity="0.00" noise="55.94" route="!f1" type="car" waiting="5.00" lane="edge1_0" pos="99.06" speed="0.00" angle="90.00" x="99.06" y="-1.60"/>
    </timestep>
    <timestep time="89.00">
        <vehicle id="f1.4" eclass="HBEFA3/PC_G_EU4" CO2="2624.72" CO="164.78" HC="0.81" NOx="1.20" PMx="0.07" fuel="837.22" electricity="0.00" noise="55.94" route="!f1" type="car" waiting="6.00" lane="edge1_0" pos="99.06" speed="0.00" angle="90.00" x="99.06" y="-1.60"/>
    </timestep>
    <timestep time="90.00">
        <vehicle id="f1.4" eclass="HBEFA3/PC_G_EU4" CO2="3985.77" CO="151.13" HC="0.78" NOx="1.78" PMx="0.09" fuel="1271.31" electricity="0.00" noise="67.93" route="!f1" type="car" waiting="0.00" lane="edge2_0" pos="1.46" speed="2.51" angle="90.00" x="101.46" y="-1.60"/>
        <vehicle id="f1.5" eclass="HBEFA3/PC_G_EU4" CO2="2624.72" CO="164.78" HC="0.81" NOx="1.20" PMx="0.07" fuel="837.22" electricity="0.00" noise="55.94" route="!f1" type="car" waiting="0.00" lane="edge1_0" pos="5.10" speed="0.00" angle="90.00" x="5.10" y="-1.60"/>
    </timestep>
    <timestep time="91.00">
        <vehicle id="f1.4" eclass="HBEFA3/PC_G_EU4" CO2="4965.00" CO="138.42" HC="0.75" NOx="2.18" PMx="0.10" fuel="1583.63" electricity="0.00" noise="67.72" route="!f1" type="car" waiting="0.00" lane="edge2_0" pos="6.21" speed="4.75" angle="90.00" x="106.21" y="-1.60"/>