<?xml version="1.0" encoding="UTF-8"?>

<!-- generated on 2025-04-30 02:28:55 by Eclipse SUMO GUI Version 1.22.0
<sumoConfiguration xmlns:xsi="http://www.w3.org/2001/XMLSchema-instance" xsi:noNamespaceSchemaLocation="http://sumo.dlr.de/xsd/sumoConfiguration.xsd">

    <input>
        <net-file value="quartier.net.xml"/>
        <route-files value="quartier.rou.xml"/>
        <additional-files value="quartier.add.xml"/>
    </input>

    <time>
        <begin value="0"/>
        <end value="3600"/>
    </time>

    <processing>
        <ignore-route-errors value="true"/>
    </processing>

    <report>
        <no-warnings value="true"/>
        <duration-log.disable value="true"/>
        <no-step-log value="true"/>
    </report>

    <traci_server>
        <remote-port value="60682"/>
    </traci_server>

    <gui_only>
        <quit-on-end value="true"/>
        <start value="true"/>
    </gui_only>

</sumoConfiguration>
-->

<detector xmlns:xsi="http://www.w3.org/2001/XMLSchema-instance" xsi:noNamespaceSchemaLocation="http://sumo.dlr.de/xsd/det_e2_file.xsd">
   <interval begin="0.00" end="60.00" id="emissions_e9" sampledSeconds="32.88" nVehEntered="3" nVehLeft="3" nVehSeen="3" meanSpeed="4.55" meanTimeLoss="5.39" meanOccupancy="1.86" maxOccupancy="7.20" meanMaxJamLengthInVehicles="0.02" meanMaxJamLengthInMeters="0.03" maxJamLengthInVehicles="1" maxJamLengthInMeters="1.80" jamLengthInVehiclesSum="1" jamLengthInMetersSum="1.80" meanHaltingDuration="1.33" maxHaltingDuration="2.00" haltingDurationSum="4.00" meanIntervalHaltingDuration="1.33" maxIntervalHaltingDuration="2.00" intervalHaltingDurationSum="4.00" startedHalts="3.00" meanVehicleNumber="0.57" maxVehicleNumber="2" />
   <interval begin="60.00" end="120.00" id="emissions_e9" sampledSeconds="10.82" nVehEntered="1" nVehLeft="1" nVehSeen="1" meanSpeed="4.61" meanTimeLoss="4.51" meanOccupancy="0.60" maxOccupancy="3.60" meanMaxJamLengthInVehicles="0.00" meanMaxJamLengthInMeters="0.00" maxJamLengthInVehicles="0" maxJamLengthInMeters="0.00" jamLengthInVehiclesSum="0" jamLengthInMetersSum="0.00" meanHaltingDuration="1.00" maxHaltingDuration="1.00" haltingDurationSum="1.00" meanIntervalHaltingDuration="1.00" maxIntervalHaltingDuration="1.00" intervalHaltingDurationSum="1.00" startedHalts="1.00" meanVehicleNumber="0.18" maxVehicleNumber="1" />
   <interval begin="120.00" end="180.00" id="emissions_e9" sampledSeconds="23.24" nVehEntered="3" nVehLeft="2" nVehSeen="3" meanSpeed="4.32" meanTimeLoss="3.96" meanOccupancy="1.32" maxOccupancy="7.20" meanMaxJamLengthInVehicles="0.03" meanMaxJamLengthInMeters="0.06" maxJamLengthInVehicles="1" maxJamLengthInMeters="1.80" jamLengthInVehiclesSum="2" jamLengthInMetersSum="3.60" meanHaltingDuration="1.67" maxHaltingDuration="2.00" haltingDurationSum="5.00" meanIntervalHaltingDuration="1.67" maxIntervalHaltingDuration="2.00" intervalHaltingDurationSum="5.00" startedHalts="3.00" meanVehicleNumber="0.40" maxVehicleNumber="2" />
   <interval begin="180.00" end="240.00" id="emissions_e9" sampledSeconds="21.39" nVehEntered="1" nVehLeft="2" nVehSeen="2" meanSpeed="4.63" meanTimeLoss="4.01" meanOccupancy="1.20" maxOccupancy="3.60" meanMaxJamLengthInVehicles="0.00" meanMaxJamLengthInMeters="0.00" maxJamLengthInVehicles="0" maxJamLengthInMeters="0.00" jamLengthInVehiclesSum="0" jamLengthInMetersSum="0.00" meanHaltingDuration="1.00" maxHaltingDuration="1.00" haltingDurationSum="2.00" meanIntervalHaltingDuration="0.50" maxIntervalHaltingDuration="1.00" intervalHaltingDurationSum="1.00" startedHalts="1.00" meanVehicleNumber="0.37" maxVehicleNumber="1" />
   <interval begin="240.00" end="300.00" id="emissions_e9" sampledSeconds="27.62" nVehEntered="3" nVehLeft="2" nVehSeen="3" meanSpeed="4.14" meanTimeLoss="4.61" meanOccupancy="1.56" maxOccupancy="3.60" meanMaxJamLengthInVehicles="0.02" meanMaxJamLengthInMeters="0.03" maxJamLengthInVehicles="1" maxJamLengthInMeters="1.80" jamLengthInVehiclesSum="1" jamLengthInMetersSum="1.80" meanHaltingDuration="1.33" maxHaltingDuration="2.00" haltingDurationSum="4.00" meanIntervalHaltingDuration="1.33" maxIntervalHaltingDuration="2.00" intervalHaltingDurationSum="4.00" startedHalts="3.00" meanVehicleNumber="0.47" maxVehicleNumber="1" />
   <interval begin="300.00" end="360.00" id="emissions_e9" sampledSeconds="21.29" nVehEntered="2" nVehLeft="2" nVehSeen="3" meanSpeed="4.38" meanTimeLoss="3.62" meanOccupancy="1.20" maxOccupancy="3.60" meanMaxJamLengthInVehicles="0.00" meanMaxJamLengthInMeters="0.00" maxJamLengthInVehicles="0" maxJamLengthInMeters="0.00" jamLengthInVehiclesSum="0" jamLengthInMetersSum="0.00" meanHaltingDuration="1.00" maxHaltingDuration="1.00" haltingDurationSum="2.00" meanIntervalHaltingDuration="1.00" maxIntervalHaltingDuration="1.00" intervalHaltingDurationSum="2.00" startedHalts="2.00" meanVehicleNumber="0.37" maxVehicleNumber="1" />
   <interval begin="360.00" end="420.00" id="emissions_e9" sampledSeconds="29.68" nVehEntered="2" nVehLeft="3" nVehSeen="3" meanSpeed="4.77" meanTimeLoss="4.31" meanOccupancy="1.63" maxOccupancy="7.20" meanMaxJamLengthInVehicles="0.02" meanMaxJamLengthInMeters="0.03" maxJamLengthInVehicles="1" maxJamLengthInMeters="1.80" jamLengthInVehiclesSum="1" jamLengthInMetersSum="1.80" meanHaltingDuration="1.50" maxHaltingDuration="2.00" haltingDurationSum="3.00" meanIntervalHaltingDuration="1.50" maxIntervalHaltingDuration="2.00" intervalHaltingDurationSum="3.00" startedHalts="2.00" meanVehicleNumber="0.52" maxVehicleNumber="2" />
   <interval begin="420.00" end="480.00" id="emissions_e9" sampledSeconds="11.33" nVehEntered="1" nVehLeft="1" nVehSeen="1" meanSpeed="4.41" meanTimeLoss="4.04" meanOccupancy="0.66" maxOccupancy="3.60" meanMaxJamLengthInVehicles="0.00" meanMaxJamLengthInMeters="0.00" maxJamLengthInVehicles="0" maxJamLengthInMeters="0.00" jamLengthInVehiclesSum="0" jamLengthInMetersSum="0.00" meanHaltingDuration="1.00" maxHaltingDuration="1.00" haltingDurationSum="1.00" meanIntervalHaltingDuration="1.00" maxIntervalHaltingDuration="1.00" intervalHaltingDurationSum="1.00" startedHalts="1.00" meanVehicleNumber="0.20" maxVehicleNumber="1" />
   <interval begin="480.00" end="540.00" id="emissions_e9" sampledSeconds="22.27" nVehEntered="2" nVehLeft="2" nVehSeen="2" meanSpeed="4.48" meanTimeLoss="6.00" meanOccupancy="1.26" maxOccupancy="3.60" meanMaxJamLengthInVehicles="0.02" meanMaxJamLengthInMeters="0.03" maxJamLengthInVehicles="1" maxJamLengthInMeters="1.80" jamLengthInVehiclesSum="1" jamLengthInMetersSum="1.80" meanHaltingDuration="1.50" maxHaltingDuration="2.00" haltingDurationSum="3.00" meanIntervalHaltingDuration="1.50" maxIntervalHaltingDuration="2.00" intervalHaltingDurationSum="3.00" startedHalts="2.00" meanVehicleNumber="0.38" maxVehicleNumber="1" />
   <interval begin="540.00" end="600.00" id="emissions_e9" sampledSeconds="44.51" nVehEntered="4" nVehLeft="4" nVehSeen="4" meanSpeed="4.48" meanTimeLoss="5.52" meanOccupancy="2.50" maxOccupancy="7.20" meanMaxJamLengthInVehicles="0.02" meanMaxJamLengthInMeters="0.03" maxJamLengthInVehicles="1" maxJamLengthInMeters="1.80" jamLengthInVehiclesSum="1" jamLengthInMetersSum="1.80" meanHaltingDuration="1.25" maxHaltingDuration="2.00" haltingDurationSum="5.00" meanIntervalHaltingDuration="1.25" maxIntervalHaltingDuration="2.00" intervalHaltingDurationSum="5.00" startedHalts="4.00" meanVehicleNumber="0.78" maxVehicleNumber="2" />
   <interval begin="600.00" end="660.00" id="emissions_e9" sampledSeconds="8.00" nVehEntered="1" nVehLeft="0" nVehSeen="1" meanSpeed="3.44" meanTimeLoss="4.21" meanOccupancy="0.48" maxOccupancy="3.60" meanMaxJamLengthInVehicles="0.02" meanMaxJamLengthInMeters="0.03" maxJamLengthInVehicles="1" maxJamLengthInMeters="1.80" jamLengthInVehiclesSum="1" jamLengthInMetersSum="1.80" meanHaltingDuration="2.00" maxHaltingDuration="2.00" haltingDurationSum="2.00" meanIntervalHaltingDuration="2.00" maxIntervalHaltingDuration="2.00" intervalHaltingDurationSum="2.00" startedHalts="1.00" meanVehicleNumber="0.13" maxVehicleNumber="1" />
   <interval begin="660.00" end="720.00" id="emissions_e9" sampledSeconds="12.22" nVehEntered="1" nVehLeft="1" nVehSeen="2" meanSpeed="4.50" meanTimeLoss="2.55" meanOccupancy="0.71" maxOccupancy="3.60" meanMaxJamLengthInVehicles="0.02" meanMaxJamLengthInMeters="0.03" maxJamLengthInVehicles="1" maxJamLengthInMeters="1.80" jamLengthInVehiclesSum="1" jamLengthInMetersSum="1.80" meanHaltingDuration="2.00" maxHaltingDuration="2.00" haltingDurationSum="2.00" meanIntervalHaltingDuration="2.00" maxIntervalHaltingDuration="2.00" intervalHaltingDurationSum="2.00" startedHalts="1.00" meanVehicleNumber="0.22" maxVehicleNumber="1" />
   <interval begin="720.00" end="780.00" id="emissions_e9" sampledSeconds="13.32" nVehEntered="1" nVehLeft="2" nVehSeen="2" meanSpeed="5.04" meanTimeLoss="2.98" meanOccupancy="0.74" maxOccupancy="3.60" meanMaxJamLengthInVehicles="0.00" meanMaxJamLengthInMeters="0.00" maxJamLengthInVehicles="0" maxJamLengthInMeters="0.00" jamLengthInVehiclesSum="0" jamLengthInMetersSum="0.00" meanHaltingDuration="1.00" maxHaltingDuration="1.00" haltingDurationSum="1.00" meanIntervalHaltingDuration="1.00" maxIntervalHaltingDuration="1.00" intervalHaltingDurationSum="1.00" startedHalts="1.00" meanVehicleNumber="0.25" maxVehicleNumber="1" />
   <interval begin="780.00" end="840.00" id="emissions_e9" sampledSeconds="22.33" nVehEntered="2" nVehLeft="2" nVehSeen="2" meanSpeed="4.47" meanTimeLoss="5.20" meanOccupancy="1.29" maxOccupancy="7.20" meanMaxJamLengthInVehicles="0.00" meanMaxJamLengthInMeters="0.00" maxJamLengthInVehicles="0" maxJamLengthInMeters="0.00" jamLengthInVehiclesSum="0" jamLengthInMetersSum="0.00" meanHaltingDuration="1.00" maxHaltingDuration="1.00" haltingDurationSum="2.00" meanIntervalHaltingDuration="1.00" maxIntervalHaltingDuration="1.00" intervalHaltingDurationSum="2.00" startedHalts="2.00" meanVehicleNumber="0.40" maxVehicleNumber="2" />
   <interval begin="840.00" end="900.00" id="emissions_e9" sampledSeconds="7.46" nVehEntered="1" nVehLeft="1" nVehSeen="1" meanSpeed="6.70" meanTimeLoss="0.24" meanOccupancy="0.42" maxOccupancy="3.60" meanMaxJamLengthInVehicles="0.00" meanMaxJamLengthInMeters="0.00" maxJamLengthInVehicles="0" maxJamLengthInMeters="0.00" jamLengthInVehiclesSum="0" jamLengthInMetersSum="0.00" meanHaltingDuration="0.00" maxHaltingDuration="0.00" haltingDurationSum="0.00" meanIntervalHaltingDuration="0.00" maxIntervalHaltingDuration="0.00" intervalHaltingDurationSum="0.00" startedHalts="0.00" meanVehicleNumber="0.13" maxVehicleNumber="1" />
   <interval begin="900.00" end="960.00" id="emissions_e9" sampledSeconds="0.00" nVehEntered="0" nVehLeft="0" nVehSeen="0" meanSpeed="-1.00" meanTimeLoss="-1.00" meanOccupancy="0.00" maxOccupancy="0.00" meanMaxJamLengthInVehicles="0.00" meanMaxJamLengthInMeters="0.00" maxJamLengthInVehicles="0" maxJamLengthInMeters="0.00" jamLengthInVehiclesSum="0" jamLengthInMetersSum="0.00" meanHaltingDuration="0.00" maxHaltingDuration="0.00" haltingDurationSum="0.00" meanIntervalHaltingDuration="0.00" maxIntervalHaltingDuration="0.00" intervalHaltingDurationSum="0.00" startedHalts="0.00" meanVehicleNumber="0.00" maxVehicleNumber="0" />
   <interval begin="960.00" end="1020.00" id="emissions_e9" sampledSeconds="0.00" nVehEntered="0" nVehLeft="0" nVehSeen="0" meanSpeed="-1.00" meanTimeLoss="-1.00" meanOccupancy="0.00" maxOccupancy="0.00" meanMaxJamLengthInVehicles="0.00" meanMaxJamLengthInMeters="0.00" maxJamLengthInVehicles="0" maxJamLengthInMeters="0.00" jamLengthInVehiclesSum="0" jamLengthInMetersSum="0.00" meanHaltingDuration="0.00" maxHaltingDuration="0.00" haltingDurationSum="0.00" meanIntervalHaltingDuration="0.00" maxIntervalHaltingDuration="0.00" intervalHaltingDurationSum="0.00" startedHalts="0.00" meanVehicleNumber="0.00" maxVehicleNumber="0" />
   <interval begin="1020.00" end="1080.00" id="emissions_e9" sampledSeconds="13.70" nVehEntered="2" nVehLeft="1" nVehSeen="2" meanSpeed="3.99" meanTimeLoss="3.78" meanOccupancy="0.78" maxOccupancy="3.60" meanMaxJamLengthInVehicles="0.00" meanMaxJamLengthInMeters="0.00" maxJamLengthInVehicles="0" maxJamLengthInMeters="0.00" jamLengthInVehiclesSum="0" jamLengthInMetersSum="0.00" meanHaltingDuration="1.00" maxHaltingDuration="1.00" haltingDurationSum="2.00" meanIntervalHaltingDuration="1.00" maxIntervalHaltingDuration="1.00" intervalHaltingDurationSum="2.00" startedHalts="2.00" meanVehicleNumber="0.23" maxVehicleNumber="1" />
   <interval begin="1080.00" end="1140.00" id="emissions_e9" sampledSeconds="29.26" nVehEntered="2" nVehLeft="3" nVehSeen="3" meanSpeed="4.95" meanTimeLoss="4.27" meanOccupancy="1.62" maxOccupancy="7.20" meanMaxJamLengthInVehicles="0.00" meanMaxJamLengthInMeters="0.00" maxJamLengthInVehicles="0" maxJamLengthInMeters="0.00" jamLengthInVehiclesSum="0" jamLengthInMetersSum="0.00" meanHaltingDuration="1.00" maxHaltingDuration="1.00" haltingDurationSum="2.00" meanIntervalHaltingDuration="1.00" maxIntervalHaltingDuration="1.00" intervalHaltingDurationSum="2.00" startedHalts="2.00" meanVehicleNumber="0.50" maxVehicleNumber="2" />
   <interval begin="1140.00" end="1200.00" id="emissions_e9" sampledSeconds="17.80" nVehEntered="2" nVehLeft="2" nVehSeen="2" meanSpeed="5.61" meanTimeLoss="2.56" meanOccupancy="1.00" maxOccupancy="7.20" meanMaxJamLengthInVehicles="0.02" meanMaxJamLengthInMeters="0.03" maxJamLengthInVehicles="1" maxJamLengthInMeters="1.80" jamLengthInVehiclesSum="1" jamLengthInMetersSum="1.80" meanHaltingDuration="2.00" maxHaltingDuration="2.00" haltingDurationSum="2.00" meanIntervalHaltingDuration="2.00" maxIntervalHaltingDuration="2.00" intervalHaltingDurationSum="2.00" startedHalts="1.00" meanVehicleNumber="0.32" maxVehicleNumber="2" />
   <interval begin="1200.00" end="1260.00" id="emissions_e9" sampledSeconds="22.83" nVehEntered="2" nVehLeft="2" nVehSeen="2" meanSpeed="4.37" meanTimeLoss="4.95" meanOccupancy="1.32" maxOccupancy="7.20" meanMaxJamLengthInVehicles="0.03" meanMaxJamLengthInMeters="0.06" maxJamLengthInVehicles="1" maxJamLengthInMeters="1.80" jamLengthInVehiclesSum="2" jamLengthInMetersSum="3.60" meanHaltingDuration="2.00" maxHaltingDuration="2.00" haltingDurationSum="4.00" meanIntervalHaltingDuration="2.00" maxIntervalHaltingDuration="2.00" intervalHaltingDurationSum="4.00" startedHalts="2.00" meanVehicleNumber="0.40" maxVehicleNumber="2" />
   <interval begin="1260.00" end="1320.00" id="emissions_e9" sampledSeconds="11.20" nVehEntered="1" nVehLeft="1" nVehSeen="1" meanSpeed="4.46" meanTimeLoss="4.90" meanOccupancy="0.65" maxOccupancy="3.60" meanMaxJamLengthInVehicles="0.00" meanMaxJamLengthInMeters="0.00" maxJamLengthInVehicles="0" maxJamLengthInMeters="0.00" jamLengthInVehiclesSum="0" jamLengthInMetersSum="0.00" meanHaltingDuration="1.00" maxHaltingDuration="1.00" haltingDurationSum="1.00" meanIntervalHaltingDuration="1.00" maxIntervalHaltingDuration="1.00" intervalHaltingDurationSum="1.00" startedHalts="1.00" meanVehicleNumber="0.20" maxVehicleNumber="1" />
   <interval begin="1320.00" end="1380.00" id="emissions_e9" sampledSeconds="33.46" nVehEntered="3" nVehLeft="3" nVehSeen="3" meanSpeed="4.47" meanTimeLoss="5.40" meanOccupancy="1.91" maxOccupancy="7.20" meanMaxJamLengthInVehicles="0.00" meanMaxJamLengthInMeters="0.00" maxJamLengthInVehicles="0" maxJamLengthInMeters="0.00" jamLengthInVehiclesSum="0" jamLengthInMetersSum="0.00" meanHaltingDuration="1.00" maxHaltingDuration="1.00" haltingDurationSum="3.00" meanIntervalHaltingDuration="1.00" maxIntervalHaltingDuration="1.00" intervalHaltingDurationSum="3.00" startedHalts="3.00" meanVehicleNumber="0.58" maxVehicleNumber="2" />
   <interval begin="1380.00" end="1440.00" id="emissions_e9" sampledSeconds="9.00" nVehEntered="1" nVehLeft="0" nVehSeen="1" meanSpeed="4.04" meanTimeLoss="4.62" meanOccupancy="0.54" maxOccupancy="3.60" meanMaxJamLengthInVehicles="0.00" meanMaxJamLengthInMeters="0.00" maxJamLengthInVehicles="0" maxJamLengthInMeters="0.00" jamLengthInVehiclesSum="0" jamLengthInMetersSum="0.00" meanHaltingDuration="1.00" maxHaltingDuration="1.00" haltingDurationSum="1.00" meanIntervalHaltingDuration="1.00" maxIntervalHaltingDuration="1.00" intervalHaltingDurationSum="1.00" startedHalts="1.00" meanVehicleNumber="0.15" maxVehicleNumber="1" />
   <interval begin="1440.00" end="1500.00" id="emissions_e9" sampledSeconds="35.98" nVehEntered="4" nVehLeft="4" nVehSeen="5" meanSpeed="4.77" meanTimeLoss="2.76" meanOccupancy="2.02" maxOccupancy="7.20" meanMaxJamLengthInVehicles="0.02" meanMaxJamLengthInMeters="0.03" maxJamLengthInVehicles="1" maxJamLengthInMeters="1.80" jamLengthInVehiclesSum="1" jamLengthInMetersSum="1.80" meanHaltingDuration="1.33" maxHaltingDuration="2.00" haltingDurationSum="4.00" meanIntervalHaltingDuration="1.33" maxIntervalHaltingDuration="2.00" intervalHaltingDurationSum="4.00" startedHalts="3.00" meanVehicleNumber="0.63" maxVehicleNumber="2" />
   <interval begin="1500.00" end="1560.00" id="emissions_e9" sampledSeconds="17.77" nVehEntered="1" nVehLeft="2" nVehSeen="2" meanSpeed="5.15" meanTimeLoss="3.53" meanOccupancy="0.96" maxOccupancy="3.60" meanMaxJamLengthInVehicles="0.00" meanMaxJamLengthInMeters="0.00" maxJamLengthInVehicles="0" maxJamLengthInMeters="0.00" jamLengthInVehiclesSum="0" jamLengthInMetersSum="0.00" meanHaltingDuration="1.00" maxHaltingDuration="1.00" haltingDurationSum="1.00" meanIntervalHaltingDuration="1.00" maxIntervalHaltingDuration="1.00" intervalHaltingDurationSum="1.00" startedHalts="1.00" meanVehicleNumber="0.30" maxVehicleNumber="1" />
   <interval begin="1560.00" end="1620.00" id="emissions_e9" sampledSeconds="10.00" nVehEntered="1" nVehLeft="0" nVehSeen="1" meanSpeed="4.30" meanTimeLoss="5.07" meanOccupancy="0.60" maxOccupancy="3.60" meanMaxJamLengthInVehicles="0.00" meanMaxJamLengthInMeters="0.00" maxJamLengthInVehicles="0" maxJamLengthInMeters="0.00" jamLengthInVehiclesSum="0" jamLengthInMetersSum="0.00" meanHaltingDuration="1.00" maxHaltingDuration="1.00" haltingDurationSum="1.00" meanIntervalHaltingDuration="1.00" maxIntervalHaltingDuration="1.00" intervalHaltingDurationSum="1.00" startedHalts="1.00" meanVehicleNumber="0.17" maxVehicleNumber="1" />
   <interval begin="1620.00" end="1680.00" id="emissions_e9" sampledSeconds="0.80" nVehEntered="0" nVehLeft="1" nVehSeen="1" meanSpeed="8.55" meanTimeLoss="0.02" meanOccupancy="0.00" maxOccupancy="0.00" meanMaxJamLengthInVehicles="0.00" meanMaxJamLengthInMeters="0.00" maxJamLengthInVehicles="0" maxJamLengthInMeters="0.00" jamLengthInVehiclesSum="0" jamLengthInMetersSum="0.00" meanHaltingDuration="0.00" maxHaltingDuration="0.00" haltingDurationSum="0.00" meanIntervalHaltingDuration="0.00" maxIntervalHaltingDuration="0.00" intervalHaltingDurationSum="0.00" startedHalts="0.00" meanVehicleNumber="0.02" maxVehicleNumber="1" />
   <interval begin="1680.00" end="1740.00" id="emissions_e9" sampledSeconds="23.28" nVehEntered="2" nVehLeft="2" nVehSeen="2" meanSpeed="4.29" meanTimeLoss="5.09" meanOccupancy="1.32" maxOccupancy="7.20" meanMaxJamLengthInVehicles="0.03" meanMaxJamLengthInMeters="0.06" maxJamLengthInVehicles="1" maxJamLengthInMeters="1.80" jamLengthInVehiclesSum="2" jamLengthInMetersSum="3.60" meanHaltingDuration="2.00" maxHaltingDuration="2.00" haltingDurationSum="4.00" meanIntervalHaltingDuration="2.00" maxIntervalHaltingDuration="2.00" intervalHaltingDurationSum="4.00" startedHalts="2.00" meanVehicleNumber="0.42" maxVehicleNumber="2" />
   <interval begin="1740.00" end="1800.00" id="emissions_e9" sampledSeconds="6.20" nVehEntered="1" nVehLeft="1" nVehSeen="1" meanSpeed="8.06" meanTimeLoss="0.15" meanOccupancy="0.35" maxOccupancy="3.60" meanMaxJamLengthInVehicles="0.00" meanMaxJamLengthInMeters="0.00" maxJamLengthInVehicles="0" maxJamLengthInMeters="0.00" jamLengthInVehiclesSum="0" jamLengthInMetersSum="0.00" meanHaltingDuration="0.00" maxHaltingDuration="0.00" haltingDurationSum="0.00" meanIntervalHaltingDuration="0.00" maxIntervalHaltingDuration="0.00" intervalHaltingDurationSum="0.00" startedHalts="0.00" meanVehicleNumber="0.12" maxVehicleNumber="1" />
   <interval begin="1800.00" end="1860.00" id="emissions_e9" sampledSeconds="0.00" nVehEntered="0" nVehLeft="0" nVehSeen="0" meanSpeed="-1.00" meanTimeLoss="-1.00" meanOccupancy="0.00" maxOccupancy="0.00" meanMaxJamLengthInVehicles="0.00" meanMaxJamLengthInMeters="0.00" maxJamLengthInVehicles="0" maxJamLengthInMeters="0.00" jamLengthInVehiclesSum="0" jamLengthInMetersSum="0.00" meanHaltingDuration="0.00" maxHaltingDuration="0.00" haltingDurationSum="0.00" meanIntervalHaltingDuration="0.00" maxIntervalHaltingDuration="0.00" intervalHaltingDurationSum="0.00" startedHalts="0.00" meanVehicleNumber="0.00" maxVehicleNumber="0" />
   <interval begin="1860.00" end="1920.00" id="emissions_e9" sampledSeconds="10.87" nVehEntered="1" nVehLeft="1" nVehSeen="1" meanSpeed="4.59" meanTimeLoss="5.75" meanOccupancy="0.60" maxOccupancy="3.60" meanMaxJamLengthInVehicles="0.02" meanMaxJamLengthInMeters="0.03" maxJamLengthInVehicles="1" maxJamLengthInMeters="1.80" jamLengthInVehiclesSum="1" jamLengthInMetersSum="1.80" meanHaltingDuration="2.00" maxHaltingDuration="2.00" haltingDurationSum="2.00" meanIntervalHaltingDuration="2.00" maxIntervalHaltingDuration="2.00" intervalHaltingDurationSum="2.00" startedHalts="1.00" meanVehicleNumber="0.18" maxVehicleNumber="1" />
   <interval begin="1920.00" end="1980.00" id="emissions_e9" sampledSeconds="0.00" nVehEntered="0" nVehLeft="0" nVehSeen="0" meanSpeed="-1.00" meanTimeLoss="-1.00" meanOccupancy="0.00" maxOccupancy="0.00" meanMaxJamLengthInVehicles="0.00" meanMaxJamLengthInMeters="0.00" maxJamLengthInVehicles="0" maxJamLengthInMeters="0.00" jamLengthInVehiclesSum="0" jamLengthInMetersSum="0.00" meanHaltingDuration="0.00" maxHaltingDuration="0.00" haltingDurationSum="0.00" meanIntervalHaltingDuration="0.00" maxIntervalHaltingDuration="0.00" intervalHaltingDurationSum="0.00" startedHalts="0.00" meanVehicleNumber="0.00" maxVehicleNumber="0" />
   <interval begin="1980.00" end="2040.00" id="emissions_e9" sampledSeconds="11.21" nVehEntered="1" nVehLeft="1" nVehSeen="1" meanSpeed="4.45" meanTimeLoss="5.02" meanOccupancy="0.66" maxOccupancy="3.60" meanMaxJamLengthInVehicles="0.00" meanMaxJamLengthInMeters="0.00" maxJamLengthInVehicles="0" maxJamLengthInMeters="0.00" jamLengthInVehiclesSum="0" jamLengthInMetersSum="0.00" meanHaltingDuration="1.00" maxHaltingDuration="1.00" haltingDurationSum="1.00" meanIntervalHaltingDuration="1.00" maxIntervalHaltingDuration="1.00" intervalHaltingDurationSum="1.00" startedHalts="1.00" meanVehicleNumber="0.20" maxVehicleNumber="1" />
   <interval begin="2040.00" end="2100.00" id="emissions_e9" sampledSeconds="30.40" nVehEntered="4" nVehLeft="2" nVehSeen="4" meanSpeed="4.45" meanTimeLoss="3.32" meanOccupancy="1.76" maxOccupancy="7.20" meanMaxJamLengthInVehicles="0.02" meanMaxJamLengthInMeters="0.03" maxJamLengthInVehicles="1" maxJamLengthInMeters="1.80" jamLengthInVehiclesSum="1" jamLengthInMetersSum="1.80" meanHaltingDuration="1.33" maxHaltingDuration="2.00" haltingDurationSum="4.00" meanIntervalHaltingDuration="1.33" maxIntervalHaltingDuration="2.00" intervalHaltingDurationSum="4.00" startedHalts="3.00" meanVehicleNumber="0.53" maxVehicleNumber="2" />
   <interval begin="2100.00" end="2160.00" id="emissions_e9" sampledSeconds="10.19" nVehEntered="0" nVehLeft="2" nVehSeen="2" meanSpeed="6.32" meanTimeLoss="0.58" meanOccupancy="0.54" maxOccupancy="7.20" meanMaxJamLengthInVehicles="0.00" meanMaxJamLengthInMeters="0.00" maxJamLengthInVehicles="0" maxJamLengthInMeters="0.00" jamLengthInVehiclesSum="0" jamLengthInMetersSum="0.00" meanHaltingDuration="0.00" maxHaltingDuration="0.00" haltingDurationSum="0.00" meanIntervalHaltingDuration="0.00" maxIntervalHaltingDuration="0.00" intervalHaltingDurationSum="0.00" startedHalts="0.00" meanVehicleNumber="0.18" maxVehicleNumber="2" />
   <interval begin="2160.00" end="2220.00" id="emissions_e9" sampledSeconds="8.00" nVehEntered="1" nVehLeft="0" nVehSeen="1" meanSpeed="3.47" meanTimeLoss="4.49" meanOccupancy="0.48" maxOccupancy="3.60" meanMaxJamLengthInVehicles="0.00" meanMaxJamLengthInMeters="0.00" maxJamLengthInVehicles="0" maxJamLengthInMeters="0.00" jamLengthInVehiclesSum="0" jamLengthInMetersSum="0.00" meanHaltingDuration="1.00" maxHaltingDuration="1.00" haltingDurationSum="1.00" meanIntervalHaltingDuration="1.00" maxIntervalHaltingDuration="1.00" intervalHaltingDurationSum="1.00" startedHalts="1.00" meanVehicleNumber="0.13" maxVehicleNumber="1" />
   <interval begin="2220.00" end="2280.00" id="emissions_e9" sampledSeconds="36.25" nVehEntered="3" nVehLeft="4" nVehSeen="4" meanSpeed="4.74" meanTimeLoss="3.73" meanOccupancy="2.04" maxOccupancy="7.20" meanMaxJamLengthInVehicles="0.02" meanMaxJamLengthInMeters="0.03" maxJamLengthInVehicles="1" maxJamLengthInMeters="1.80" jamLengthInVehiclesSum="1" jamLengthInMetersSum="1.80" meanHaltingDuration="1.33" maxHaltingDuration="2.00" haltingDurationSum="4.00" meanIntervalHaltingDuration="1.33" maxIntervalHaltingDuration="2.00" intervalHaltingDurationSum="4.00" startedHalts="3.00" meanVehicleNumber="0.63" maxVehicleNumber="2" />
   <interval begin="2280.00" end="2340.00" id="emissions_e9" sampledSeconds="5.88" nVehEntered="1" nVehLeft="1" nVehSeen="1" meanSpeed="8.51" meanTimeLoss="0.22" meanOccupancy="0.30" maxOccupancy="3.60" meanMaxJamLengthInVehicles="0.00" meanMaxJamLengthInMeters="0.00" maxJamLengthInVehicles="0" maxJamLengthInMeters="0.00" jamLengthInVehiclesSum="0" jamLengthInMetersSum="0.00" meanHaltingDuration="0.00" maxHaltingDuration="0.00" haltingDurationSum="0.00" meanIntervalHaltingDuration="0.00" maxIntervalHaltingDuration="0.00" intervalHaltingDurationSum="0.00" startedHalts="0.00" meanVehicleNumber="0.10" maxVehicleNumber="1" />
   <interval begin="2340.00" end="2400.00" id="emissions_e9" sampledSeconds="20.65" nVehEntered="2" nVehLeft="2" nVehSeen="2" meanSpeed="4.84" meanTimeLoss="4.35" meanOccupancy="1.15" maxOccupancy="7.20" meanMaxJamLengthInVehicles="0.00" meanMaxJamLengthInMeters="0.00" maxJamLengthInVehicles="0" maxJamLengthInMeters="0.00" jamLengthInVehiclesSum="0" jamLengthInMetersSum="0.00" meanHaltingDuration="1.00" maxHaltingDuration="1.00" haltingDurationSum="1.00" meanIntervalHaltingDuration="1.00" maxIntervalHaltingDuration="1.00" intervalHaltingDurationSum="1.00" startedHalts="1.00" meanVehicleNumber="0.37" maxVehicleNumber="2" />
   <interval begin="2400.00" end="2460.00" id="emissions_e9" sampledSeconds="33.53" nVehEntered="3" nVehLeft="3" nVehSeen="3" meanSpeed="4.47" meanTimeLoss="5.02" meanOccupancy="1.91" maxOccupancy="7.20" meanMaxJamLengthInVehicles="0.03" meanMaxJamLengthInMeters="0.06" maxJamLengthInVehicles="1" maxJamLengthInMeters="1.80" jamLengthInVehiclesSum="2" jamLengthInMetersSum="3.60" meanHaltingDuration="1.67" maxHaltingDuration="2.00" haltingDurationSum="5.00" meanIntervalHaltingDuration="1.67" maxIntervalHaltingDuration="2.00" intervalHaltingDurationSum="5.00" startedHalts="3.00" meanVehicleNumber="0.60" maxVehicleNumber="2" />
   <interval begin="2460.00" end="2520.00" id="emissions_e9" sampledSeconds="0.00" nVehEntered="0" nVehLeft="0" nVehSeen="0" meanSpeed="-1.00" meanTimeLoss="-1.00" meanOccupancy="0.00" maxOccupancy="0.00" meanMaxJamLengthInVehicles="0.00" meanMaxJamLengthInMeters="0.00" maxJamLengthInVehicles="0" maxJamLengthInMeters="0.00" jamLengthInVehiclesSum="0" jamLengthInMetersSum="0.00" meanHaltingDuration="0.00" maxHaltingDuration="0.00" haltingDurationSum="0.00" meanIntervalHaltingDuration="0.00" maxIntervalHaltingDuration="0.00" intervalHaltingDurationSum="0.00" startedHalts="0.00" meanVehicleNumber="0.00" maxVehicleNumber="0" />
   <interval begin="2520.00" end="2580.00" id="emissions_e9" sampledSeconds="43.98" nVehEntered="4" nVehLeft="4" nVehSeen="4" meanSpeed="4.54" meanTimeLoss="5.07" meanOccupancy="2.52" maxOccupancy="7.20" meanMaxJamLengthInVehicles="0.03" meanMaxJamLengthInMeters="0.06" maxJamLengthInVehicles="1" maxJamLengthInMeters="1.80" jamLengthInVehiclesSum="2" jamLengthInMetersSum="3.60" meanHaltingDuration="1.50" maxHaltingDuration="2.00" haltingDurationSum="6.00" meanIntervalHaltingDuration="1.50" maxIntervalHaltingDuration="2.00" intervalHaltingDurationSum="6.00" startedHalts="4.00" meanVehicleNumber="0.77" maxVehicleNumber="2" />
   <interval begin="2580.00" end="2640.00" id="emissions_e9" sampledSeconds="10.76" nVehEntered="1" nVehLeft="1" nVehSeen="1" meanSpeed="4.64" meanTimeLoss="5.30" meanOccupancy="0.60" maxOccupancy="3.60" meanMaxJamLengthInVehicles="0.00" meanMaxJamLengthInMeters="0.00" maxJamLengthInVehicles="0" maxJamLengthInMeters="0.00" jamLengthInVehiclesSum="0" jamLengthInMetersSum="0.00" meanHaltingDuration="1.00" maxHaltingDuration="1.00" haltingDurationSum="1.00" meanIntervalHaltingDuration="1.00" maxIntervalHaltingDuration="1.00" intervalHaltingDurationSum="1.00" startedHalts="1.00" meanVehicleNumber="0.18" maxVehicleNumber="1" />
   <interval begin="2640.00" end="2700.00" id="emissions_e9" sampledSeconds="31.85" nVehEntered="4" nVehLeft="3" nVehSeen="4" meanSpeed="4.82" meanTimeLoss="3.71" meanOccupancy="1.85" maxOccupancy="3.60" meanMaxJamLengthInVehicles="0.02" meanMaxJamLengthInMeters="0.03" maxJamLengthInVehicles="1" maxJamLengthInMeters="1.80" jamLengthInVehiclesSum="1" jamLengthInMetersSum="1.80" meanHaltingDuration="1.33" maxHaltingDuration="2.00" haltingDurationSum="4.00" meanIntervalHaltingDuration="1.33" maxIntervalHaltingDuration="2.00" intervalHaltingDurationSum="4.00" startedHalts="3.00" meanVehicleNumber="0.57" maxVehicleNumber="2" />