<?xml version="1.0" encoding="UTF-8"?>

<!-- generated on 2025-04-30 02:28:55 by Eclipse SUMO GUI Version 1.22.0
<sumoConfiguration xmlns:xsi="http://www.w3.org/2001/XMLSchema-instance" xsi:noNamespaceSchemaLocation="http://sumo.dlr.de/xsd/sumoConfiguration.xsd">

    <input>
        <net-file value="quartier.net.xml"/>
        <route-files value="quartier.rou.xml"/>
        <additional-files value="quartier.add.xml"/>
    </input>

    <time>
        <begin value="0"/>
        <end value="3600"/>
    </time>

    <processing>
        <ignore-route-errors value="true"/>
    </processing>

    <report>
        <no-warnings value="true"/>
        <duration-log.disable value="true"/>
        <no-step-log value="true"/>
    </report>

    <traci_server>
        <remote-port value="60682"/>
    </traci_server>

    <gui_only>
        <quit-on-end value="true"/>
        <start value="true"/>
    </gui_only>

</sumoConfiguration>
-->

<detector xmlns:xsi="http://www.w3.org/2001/XMLSchema-instance" xsi:noNamespaceSchemaLocation="http://sumo.dlr.de/xsd/det_e2_file.xsd">
   <interval begin="0.00" end="60.00" id="emissions_e2" sampledSeconds="20.84" nVehEntered="5" nVehLeft="5" nVehSeen="5" meanSpeed="10.99" meanTimeLoss="0.85" meanOccupancy="3.85" maxOccupancy="23.81" meanMaxJamLengthInVehicles="0.00" meanMaxJamLengthInMeters="0.00" maxJamLengthInVehicles="0" maxJamLengthInMeters="0.00" jamLengthInVehiclesSum="0" jamLengthInMetersSum="0.00" meanHaltingDuration="0.00" maxHaltingDuration="0.00" haltingDurationSum="0.00" meanIntervalHaltingDuration="0.00" maxIntervalHaltingDuration="0.00" intervalHaltingDurationSum="0.00" startedHalts="0.00" meanVehicleNumber="0.42" maxVehicleNumber="2" />
   <interval begin="60.00" end="120.00" id="emissions_e2" sampledSeconds="56.85" nVehEntered="11" nVehLeft="9" nVehSeen="11" meanSpeed="6.92" meanTimeLoss="2.38" meanOccupancy="10.57" maxOccupancy="35.71" meanMaxJamLengthInVehicles="0.23" meanMaxJamLengthInMeters="1.17" maxJamLengthInVehicles="1" maxJamLengthInMeters="5.00" jamLengthInVehiclesSum="14" jamLengthInMetersSum="70.00" meanHaltingDuration="5.67" maxHaltingDuration="8.00" haltingDurationSum="17.00" meanIntervalHaltingDuration="5.67" maxIntervalHaltingDuration="8.00" intervalHaltingDurationSum="17.00" startedHalts="3.00" meanVehicleNumber="1.03" maxVehicleNumber="3" />
   <interval begin="120.00" end="180.00" id="emissions_e2" sampledSeconds="91.52" nVehEntered="13" nVehLeft="15" nVehSeen="15" meanSpeed="5.23" meanTimeLoss="3.80" meanOccupancy="17.58" maxOccupancy="35.71" meanMaxJamLengthInVehicles="0.43" meanMaxJamLengthInMeters="2.33" maxJamLengthInVehicles="2" maxJamLengthInMeters="12.55" jamLengthInVehiclesSum="26" jamLengthInMetersSum="140.07" meanHaltingDuration="6.20" maxHaltingDuration="8.00" haltingDurationSum="31.00" meanIntervalHaltingDuration="6.20" maxIntervalHaltingDuration="8.00" intervalHaltingDurationSum="31.00" startedHalts="5.00" meanVehicleNumber="1.70" maxVehicleNumber="3" />
   <interval begin="180.00" end="240.00" id="emissions_e2" sampledSeconds="24.30" nVehEntered="5" nVehLeft="5" nVehSeen="5" meanSpeed="9.74" meanTimeLoss="1.46" meanOccupancy="5.52" maxOccupancy="40.48" meanMaxJamLengthInVehicles="0.03" meanMaxJamLengthInMeters="0.17" maxJamLengthInVehicles="1" maxJamLengthInMeters="5.00" jamLengthInVehiclesSum="2" jamLengthInMetersSum="10.00" meanHaltingDuration="0.00" maxHaltingDuration="0.00" haltingDurationSum="0.00" meanIntervalHaltingDuration="0.00" maxIntervalHaltingDuration="0.00" intervalHaltingDurationSum="0.00" startedHalts="1.00" meanVehicleNumber="0.48" maxVehicleNumber="2" />
   <interval begin="240.00" end="300.00" id="emissions_e2" sampledSeconds="102.44" nVehEntered="10" nVehLeft="5" nVehSeen="10" meanSpeed="2.49" meanTimeLoss="8.40" meanOccupancy="28.72" maxOccupancy="74.02" meanMaxJamLengthInVehicles="1.13" meanMaxJamLengthInMeters="10.25" maxJamLengthInVehicles="4" maxJamLengthInMeters="35.01" jamLengthInVehiclesSum="68" jamLengthInMetersSum="615.07" meanHaltingDuration="14.60" maxHaltingDuration="32.00" haltingDurationSum="73.00" meanIntervalHaltingDuration="14.60" maxIntervalHaltingDuration="32.00" intervalHaltingDurationSum="73.00" startedHalts="5.00" meanVehicleNumber="1.83" maxVehicleNumber="5" />
   <interval begin="300.00" end="360.00" id="emissions_e2" sampledSeconds="300.00" nVehEntered="0" nVehLeft="0" nVehSeen="5" meanSpeed="0.00" meanTimeLoss="60.00" meanOccupancy="74.51" maxOccupancy="74.51" meanMaxJamLengthInVehicles="4.98" meanMaxJamLengthInMeters="41.69" maxJamLengthInVehicles="5" maxJamLengthInMeters="41.80" jamLengthInVehiclesSum="299" jamLengthInMetersSum="2501.14" meanHaltingDuration="74.00" maxHaltingDuration="92.00" haltingDurationSum="370.00" meanIntervalHaltingDuration="60.00" maxIntervalHaltingDuration="60.00" intervalHaltingDurationSum="300.00" startedHalts="1.00" meanVehicleNumber="5.00" maxVehicleNumber="5" />
   <interval begin="360.00" end="420.00" id="emissions_e2" sampledSeconds="300.00" nVehEntered="0" nVehLeft="0" nVehSeen="5" meanSpeed="0.00" meanTimeLoss="60.00" meanOccupancy="74.51" maxOccupancy="74.51" meanMaxJamLengthInVehicles="5.00" meanMaxJamLengthInMeters="41.80" maxJamLengthInVehicles="5" maxJamLengthInMeters="41.80" jamLengthInVehiclesSum="300" jamLengthInMetersSum="2507.94" meanHaltingDuration="134.00" maxHaltingDuration="152.00" haltingDurationSum="670.00" meanIntervalHaltingDuration="60.00" maxIntervalHaltingDuration="60.00" intervalHaltingDurationSum="300.00" startedHalts="0.00" meanVehicleNumber="5.00" maxVehicleNumber="5" />
   <interval begin="420.00" end="480.00" id="emissions_e2" sampledSeconds="293.67" nVehEntered="1" nVehLeft="1" nVehSeen="6" meanSpeed="0.14" meanTimeLoss="48.44" meanOccupancy="73.08" maxOccupancy="75.37" meanMaxJamLengthInVehicles="4.60" meanMaxJamLengthInMeters="38.39" maxJamLengthInVehicles="5" maxJamLengthInMeters="41.80" jamLengthInVehiclesSum="276" jamLengthInMetersSum="2303.32" meanHaltingDuration="95.10" maxHaltingDuration="199.00" haltingDurationSum="951.00" meanIntervalHaltingDuration="28.10" maxIntervalHaltingDuration="53.00" intervalHaltingDurationSum="281.00" startedHalts="5.00" meanVehicleNumber="4.90" maxVehicleNumber="5" />
   <interval begin="480.00" end="540.00" id="emissions_e2" sampledSeconds="300.00" nVehEntered="0" nVehLeft="0" nVehSeen="5" meanSpeed="0.00" meanTimeLoss="60.00" meanOccupancy="75.70" maxOccupancy="75.70" meanMaxJamLengthInVehicles="5.00" meanMaxJamLengthInMeters="41.80" maxJamLengthInVehicles="5" maxJamLengthInMeters="41.80" jamLengthInVehiclesSum="300" jamLengthInMetersSum="2507.94" meanHaltingDuration="66.00" maxHaltingDuration="68.00" haltingDurationSum="330.00" meanIntervalHaltingDuration="60.00" maxIntervalHaltingDuration="60.00" intervalHaltingDurationSum="300.00" startedHalts="0.00" meanVehicleNumber="5.00" maxVehicleNumber="5" />
   <interval begin="540.00" end="600.00" id="emissions_e2" sampledSeconds="300.00" nVehEntered="0" nVehLeft="0" nVehSeen="5" meanSpeed="0.00" meanTimeLoss="60.00" meanOccupancy="75.70" maxOccupancy="75.70" meanMaxJamLengthInVehicles="5.00" meanMaxJamLengthInMeters="41.80" maxJamLengthInVehicles="5" maxJamLengthInMeters="41.80" jamLengthInVehiclesSum="300" jamLengthInMetersSum="2507.94" meanHaltingDuration="126.00" maxHaltingDuration="128.00" haltingDurationSum="630.00" meanIntervalHaltingDuration="60.00" maxIntervalHaltingDuration="60.00" intervalHaltingDurationSum="300.00" startedHalts="0.00" meanVehicleNumber="5.00" maxVehicleNumber="5" />
   <interval begin="600.00" end="660.00" id="emissions_e2" sampledSeconds="300.00" nVehEntered="0" nVehLeft="0" nVehSeen="5" meanSpeed="0.00" meanTimeLoss="60.00" meanOccupancy="75.70" maxOccupancy="75.70" meanMaxJamLengthInVehicles="5.00" meanMaxJamLengthInMeters="41.80" maxJamLengthInVehicles="5" maxJamLengthInMeters="41.80" jamLengthInVehiclesSum="300" jamLengthInMetersSum="2507.94" meanHaltingDuration="186.00" maxHaltingDuration="188.00" haltingDurationSum="930.00" meanIntervalHaltingDuration="60.00" maxIntervalHaltingDuration="60.00" intervalHaltingDurationSum="300.00" startedHalts="0.00" meanVehicleNumber="5.00" maxVehicleNumber="5" />
   <interval begin="660.00" end="720.00" id="emissions_e2" sampledSeconds="300.00" nVehEntered="0" nVehLeft="0" nVehSeen="5" meanSpeed="0.00" meanTimeLoss="60.00" meanOccupancy="75.70" maxOccupancy="75.70" meanMaxJamLengthInVehicles="5.00" meanMaxJamLengthInMeters="41.80" maxJamLengthInVehicles="5" maxJamLengthInMeters="41.80" jamLengthInVehiclesSum="300" jamLengthInMetersSum="2507.94" meanHaltingDuration="246.00" maxHaltingDuration="248.00" haltingDurationSum="1230.00" meanIntervalHaltingDuration="60.00" maxIntervalHaltingDuration="60.00" intervalHaltingDurationSum="300.00" startedHalts="0.00" meanVehicleNumber="5.00" maxVehicleNumber="5" />
   <interval begin="720.00" end="780.00" id="emissions_e2" sampledSeconds="295.00" nVehEntered="0" nVehLeft="1" nVehSeen="5" meanSpeed="0.13" meanTimeLoss="58.46" meanOccupancy="73.34" maxOccupancy="75.70" meanMaxJamLengthInVehicles="4.73" meanMaxJamLengthInMeters="39.31" maxJamLengthInVehicles="5" maxJamLengthInMeters="41.80" jamLengthInVehiclesSum="284" jamLengthInMetersSum="2358.37" meanHaltingDuration="242.40" maxHaltingDuration="303.00" haltingDurationSum="1212.00" meanIntervalHaltingDuration="46.00" maxIntervalHaltingDuration="59.00" intervalHaltingDurationSum="230.00" startedHalts="1.00" meanVehicleNumber="4.92" maxVehicleNumber="5" />
   <interval begin="780.00" end="840.00" id="emissions_e2" sampledSeconds="298.85" nVehEntered="1" nVehLeft="0" nVehSeen="5" meanSpeed="0.11" meanTimeLoss="59.29" meanOccupancy="73.34" maxOccupancy="74.51" meanMaxJamLengthInVehicles="4.77" meanMaxJamLengthInMeters="39.49" maxJamLengthInVehicles="5" maxJamLengthInMeters="41.80" jamLengthInVehiclesSum="286" jamLengthInMetersSum="2369.35" meanHaltingDuration="58.20" maxHaltingDuration="61.00" haltingDurationSum="291.00" meanIntervalHaltingDuration="58.00" maxIntervalHaltingDuration="60.00" intervalHaltingDurationSum="290.00" startedHalts="4.00" meanVehicleNumber="4.98" maxVehicleNumber="5" />
   <interval begin="840.00" end="900.00" id="emissions_e2" sampledSeconds="300.00" nVehEntered="0" nVehLeft="0" nVehSeen="5" meanSpeed="0.00" meanTimeLoss="60.00" meanOccupancy="74.51" maxOccupancy="74.51" meanMaxJamLengthInVehicles="5.00" meanMaxJamLengthInMeters="41.80" maxJamLengthInVehicles="5" maxJamLengthInMeters="41.80" jamLengthInVehiclesSum="300" jamLengthInMetersSum="2507.94" meanHaltingDuration="118.20" maxHaltingDuration="121.00" haltingDurationSum="591.00" meanIntervalHaltingDuration="60.00" maxIntervalHaltingDuration="60.00" intervalHaltingDurationSum="300.00" startedHalts="0.00" meanVehicleNumber="5.00" maxVehicleNumber="5" />
   <interval begin="900.00" end="960.00" id="emissions_e2" sampledSeconds="300.00" nVehEntered="0" nVehLeft="0" nVehSeen="5" meanSpeed="0.00" meanTimeLoss="60.00" meanOccupancy="74.51" maxOccupancy="74.51" meanMaxJamLengthInVehicles="5.00" meanMaxJamLengthInMeters="41.80" maxJamLengthInVehicles="5" maxJamLengthInMeters="41.80" jamLengthInVehiclesSum="300" jamLengthInMetersSum="2507.94" meanHaltingDuration="178.20" maxHaltingDuration="181.00" haltingDurationSum="891.00" meanIntervalHaltingDuration="60.00" maxIntervalHaltingDuration="60.00" intervalHaltingDurationSum="300.00" startedHalts="0.00" meanVehicleNumber="5.00" maxVehicleNumber="5" />
   <interval begin="960.00" end="1020.00" id="emissions_e2" sampledSeconds="300.00" nVehEntered="0" nVehLeft="0" nVehSeen="5" meanSpeed="0.00" meanTimeLoss="60.00" meanOccupancy="74.51" maxOccupancy="74.51" meanMaxJamLengthInVehicles="5.00" meanMaxJamLengthInMeters="41.80" maxJamLengthInVehicles="5" maxJamLengthInMeters="41.80" jamLengthInVehiclesSum="300" jamLengthInMetersSum="2507.94" meanHaltingDuration="238.20" maxHaltingDuration="241.00" haltingDurationSum="1191.00" meanIntervalHaltingDuration="60.00" maxIntervalHaltingDuration="60.00" intervalHaltingDurationSum="300.00" startedHalts="0.00" meanVehicleNumber="5.00" maxVehicleNumber="5" />
   <interval begin="1020.00" end="1080.00" id="emissions_e2" sampledSeconds="299.53" nVehEntered="0" nVehLeft="1" nVehSeen="5" meanSpeed="0.02" meanTimeLoss="59.80" meanOccupancy="74.22" maxOccupancy="74.51" meanMaxJamLengthInVehicles="4.95" meanMaxJamLengthInMeters="41.42" maxJamLengthInVehicles="5" maxJamLengthInMeters="41.80" jamLengthInVehiclesSum="297" jamLengthInMetersSum="2485.44" meanHaltingDuration="297.60" maxHaltingDuration="299.00" haltingDurationSum="1488.00" meanIntervalHaltingDuration="59.40" maxIntervalHaltingDuration="60.00" intervalHaltingDurationSum="297.00" startedHalts="0.00" meanVehicleNumber="5.00" maxVehicleNumber="5" />
   <interval begin="1080.00" end="1140.00" id="emissions_e2" sampledSeconds="294.32" nVehEntered="1" nVehLeft="0" nVehSeen="5" meanSpeed="0.11" meanTimeLoss="58.39" meanOccupancy="73.42" maxOccupancy="74.51" meanMaxJamLengthInVehicles="4.65" meanMaxJamLengthInMeters="38.76" maxJamLengthInVehicles="5" maxJamLengthInMeters="41.80" jamLengthInVehiclesSum="280" jamLengthInMetersSum="2330.75" meanHaltingDuration="146.88" maxHaltingDuration="299.00" haltingDurationSum="1175.00" meanIntervalHaltingDuration="35.62" maxIntervalHaltingDuration="59.00" intervalHaltingDurationSum="285.00" startedHalts="5.00" meanVehicleNumber="4.92" maxVehicleNumber="5" />
   <interval begin="1140.00" end="1200.00" id="emissions_e2" sampledSeconds="300.00" nVehEntered="0" nVehLeft="0" nVehSeen="5" meanSpeed="0.00" meanTimeLoss="60.00" meanOccupancy="74.51" maxOccupancy="74.51" meanMaxJamLengthInVehicles="5.00" meanMaxJamLengthInMeters="41.80" maxJamLengthInVehicles="5" maxJamLengthInMeters="41.80" jamLengthInVehiclesSum="300" jamLengthInMetersSum="2507.94" meanHaltingDuration="116.00" maxHaltingDuration="119.00" haltingDurationSum="580.00" meanIntervalHaltingDuration="60.00" maxIntervalHaltingDuration="60.00" intervalHaltingDurationSum="300.00" startedHalts="0.00" meanVehicleNumber="5.00" maxVehicleNumber="5" />
   <interval begin="1200.00" end="1260.00" id="emissions_e2" sampledSeconds="300.00" nVehEntered="0" nVehLeft="0" nVehSeen="5" meanSpeed="0.00" meanTimeLoss="60.00" meanOccupancy="74.51" maxOccupancy="74.51" meanMaxJamLengthInVehicles="5.00" meanMaxJamLengthInMeters="41.80" maxJamLengthInVehicles="5" maxJamLengthInMeters="41.80" jamLengthInVehiclesSum="300" jamLengthInMetersSum="2507.94" meanHaltingDuration="176.00" maxHaltingDuration="179.00" haltingDurationSum="880.00" meanIntervalHaltingDuration="60.00" maxIntervalHaltingDuration="60.00" intervalHaltingDurationSum="300.00" startedHalts="0.00" meanVehicleNumber="5.00" maxVehicleNumber="5" />
   <interval begin="1260.00" end="1320.00" id="emissions_e2" sampledSeconds="300.00" nVehEntered="0" nVehLeft="0" nVehSeen="5" meanSpeed="0.00" meanTimeLoss="60.00" meanOccupancy="74.51" maxOccupancy="74.51" meanMaxJamLengthInVehicles="5.00" meanMaxJamLengthInMeters="41.80" maxJamLengthInVehicles="5" maxJamLengthInMeters="41.80" jamLengthInVehiclesSum="300" jamLengthInMetersSum="2507.94" meanHaltingDuration="236.00" maxHaltingDuration="239.00" haltingDurationSum="1180.00" meanIntervalHaltingDuration="60.00" maxIntervalHaltingDuration="60.00" intervalHaltingDurationSum="300.00" startedHalts="0.00" meanVehicleNumber="5.00" maxVehicleNumber="5" />
   <interval begin="1320.00" end="1380.00" id="emissions_e2" sampledSeconds="300.00" nVehEntered="0" nVehLeft="0" nVehSeen="5" meanSpeed="0.00" meanTimeLoss="60.00" meanOccupancy="74.51" maxOccupancy="74.51" meanMaxJamLengthInVehicles="5.00" meanMaxJamLengthInMeters="41.80" maxJamLengthInVehicles="5" maxJamLengthInMeters="41.80" jamLengthInVehiclesSum="300" jamLengthInMetersSum="2507.94" meanHaltingDuration="296.00" maxHaltingDuration="299.00" haltingDurationSum="1480.00" meanIntervalHaltingDuration="60.00" maxIntervalHaltingDuration="60.00" intervalHaltingDurationSum="300.00" startedHalts="0.00" meanVehicleNumber="5.00" maxVehicleNumber="5" />
   <interval begin="1380.00" end="1440.00" id="emissions_e2" sampledSeconds="286.65" nVehEntered="2" nVehLeft="2" nVehSeen="7" meanSpeed="0.26" meanTimeLoss="40.18" meanOccupancy="71.67" maxOccupancy="74.51" meanMaxJamLengthInVehicles="4.35" meanMaxJamLengthInMeters="36.39" maxJamLengthInVehicles="5" maxJamLengthInMeters="41.80" jamLengthInVehiclesSum="261" jamLengthInMetersSum="2183.30" meanHaltingDuration="160.44" maxHaltingDuration="301.00" haltingDurationSum="1444.00" meanIntervalHaltingDuration="29.22" maxIntervalHaltingDuration="52.00" intervalHaltingDurationSum="263.00" startedHalts="5.00" meanVehicleNumber="4.80" maxVehicleNumber="5" />
   <interval begin="1440.00" end="1500.00" id="emissions_e2" sampledSeconds="300.00" nVehEntered="0" nVehLeft="0" nVehSeen="5" meanSpeed="0.00" meanTimeLoss="60.00" meanOccupancy="74.51" maxOccupancy="74.51" meanMaxJamLengthInVehicles="5.00" meanMaxJamLengthInMeters="41.80" maxJamLengthInVehicles="5" maxJamLengthInMeters="41.80" jamLengthInVehiclesSum="300" jamLengthInMetersSum="2507.94" meanHaltingDuration="108.40" maxHaltingDuration="112.00" haltingDurationSum="542.00" meanIntervalHaltingDuration="60.00" maxIntervalHaltingDuration="60.00" intervalHaltingDurationSum="300.00" startedHalts="0.00" meanVehicleNumber="5.00" maxVehicleNumber="5" />
   <interval begin="1500.00" end="1560.00" id="emissions_e2" sampledSeconds="300.00" nVehEntered="0" nVehLeft="0" nVehSeen="5" meanSpeed="0.00" meanTimeLoss="60.00" meanOccupancy="74.51" maxOccupancy="74.51" meanMaxJamLengthInVehicles="5.00" meanMaxJamLengthInMeters="41.80" maxJamLengthInVehicles="5" maxJamLengthInMeters="41.80" jamLengthInVehiclesSum="300" jamLengthInMetersSum="2507.94" meanHaltingDuration="168.40" maxHaltingDuration="172.00" haltingDurationSum="842.00" meanIntervalHaltingDuration="60.00" maxIntervalHaltingDuration="60.00" intervalHaltingDurationSum="300.00" startedHalts="0.00" meanVehicleNumber="5.00" maxVehicleNumber="5" />
   <interval begin="1560.00" end="1620.00" id="emissions_e2" sampledSeconds="300.00" nVehEntered="0" nVehLeft="0" nVehSeen="5" meanSpeed="0.00" meanTimeLoss="60.00" meanOccupancy="74.51" maxOccupancy="74.51" meanMaxJamLengthInVehicles="5.00" meanMaxJamLengthInMeters="41.80" maxJamLengthInVehicles="5" maxJamLengthInMeters="41.80" jamLengthInVehiclesSum="300" jamLengthInMetersSum="2507.94" meanHaltingDuration="228.40" maxHaltingDuration="232.00" haltingDurationSum="1142.00" meanIntervalHaltingDuration="60.00" maxIntervalHaltingDuration="60.00" intervalHaltingDurationSum="300.00" startedHalts="0.00" meanVehicleNumber="5.00" maxVehicleNumber="5" />
   <interval begin="1620.00" end="1680.00" id="emissions_e2" sampledSeconds="300.00" nVehEntered="0" nVehLeft="0" nVehSeen="5" meanSpeed="0.00" meanTimeLoss="60.00" meanOccupancy="74.51" maxOccupancy="74.51" meanMaxJamLengthInVehicles="5.00" meanMaxJamLengthInMeters="41.80" maxJamLengthInVehicles="5" maxJamLengthInMeters="41.80" jamLengthInVehiclesSum="300" jamLengthInMetersSum="2507.94" meanHaltingDuration="288.40" maxHaltingDuration="292.00" haltingDurationSum="1442.00" meanIntervalHaltingDuration="60.00" maxIntervalHaltingDuration="60.00" intervalHaltingDurationSum="300.00" startedHalts="0.00" meanVehicleNumber="5.00" maxVehicleNumber="5" />
   <interval begin="1680.00" end="1740.00" id="emissions_e2" sampledSeconds="292.73" nVehEntered="1" nVehLeft="1" nVehSeen="6" meanSpeed="0.13" meanTimeLoss="48.33" meanOccupancy="73.82" maxOccupancy="75.70" meanMaxJamLengthInVehicles="4.65" meanMaxJamLengthInMeters="38.93" maxJamLengthInVehicles="5" maxJamLengthInMeters="41.80" jamLengthInVehiclesSum="279" jamLengthInMetersSum="2336.07" meanHaltingDuration="158.22" maxHaltingDuration="301.00" haltingDurationSum="1424.00" meanIntervalHaltingDuration="30.44" maxIntervalHaltingDuration="46.00" intervalHaltingDurationSum="274.00" startedHalts="5.00" meanVehicleNumber="4.88" maxVehicleNumber="5" />
   <interval begin="1740.00" end="1800.00" id="emissions_e2" sampledSeconds="300.00" nVehEntered="0" nVehLeft="0" nVehSeen="5" meanSpeed="0.00" meanTimeLoss="60.00" meanOccupancy="75.70" maxOccupancy="75.70" meanMaxJamLengthInVehicles="5.00" meanMaxJamLengthInMeters="41.80" maxJamLengthInVehicles="5" maxJamLengthInMeters="41.80" jamLengthInVehiclesSum="300" jamLengthInMetersSum="2507.94" meanHaltingDuration="104.00" maxHaltingDuration="106.00" haltingDurationSum="520.00" meanIntervalHaltingDuration="60.00" maxIntervalHaltingDuration="60.00" intervalHaltingDurationSum="300.00" startedHalts="0.00" meanVehicleNumber="5.00" maxVehicleNumber="5" />
   <interval begin="1800.00" end="1860.00" id="emissions_e2" sampledSeconds="300.00" nVehEntered="0" nVehLeft="0" nVehSeen="5" meanSpeed="0.00" meanTimeLoss="60.00" meanOccupancy="75.70" maxOccupancy="75.70" meanMaxJamLengthInVehicles="5.00" meanMaxJamLengthInMeters="41.80" maxJamLengthInVehicles="5" maxJamLengthInMeters="41.80" jamLengthInVehiclesSum="300" jamLengthInMetersSum="2507.94" meanHaltingDuration="164.00" maxHaltingDuration="166.00" haltingDurationSum="820.00" meanIntervalHaltingDuration="60.00" maxIntervalHaltingDuration="60.00" intervalHaltingDurationSum="300.00" startedHalts="0.00" meanVehicleNumber="5.00" maxVehicleNumber="5" />
   <interval begin="1860.00" end="1920.00" id="emissions_e2" sampledSeconds="300.00" nVehEntered="0" nVehLeft="0" nVehSeen="5" meanSpeed="0.00" meanTimeLoss="60.00" meanOccupancy="75.70" maxOccupancy="75.70" meanMaxJamLengthInVehicles="5.00" meanMaxJamLengthInMeters="41.80" maxJamLengthInVehicles="5" maxJamLengthInMeters="41.80" jamLengthInVehiclesSum="300" jamLengthInMetersSum="2507.94" meanHaltingDuration="224.00" maxHaltingDuration="226.00" haltingDurationSum="1120.00" meanIntervalHaltingDuration="60.00" maxIntervalHaltingDuration="60.00" intervalHaltingDurationSum="300.00" startedHalts="0.00" meanVehicleNumber="5.00" maxVehicleNumber="5" />
   <interval begin="1920.00" end="1980.00" id="emissions_e2" sampledSeconds="300.00" nVehEntered="0" nVehLeft="0" nVehSeen="5" meanSpeed="0.00" meanTimeLoss="60.00" meanOccupancy="75.70" maxOccupancy="75.70" meanMaxJamLengthInVehicles="5.00" meanMaxJamLengthInMeters="41.80" maxJamLengthInVehicles="5" maxJamLengthInMeters="41.80" jamLengthInVehiclesSum="300" jamLengthInMetersSum="2507.94" meanHaltingDuration="284.00" maxHaltingDuration="286.00" haltingDurationSum="1420.00" meanIntervalHaltingDuration="60.00" maxIntervalHaltingDuration="60.00" intervalHaltingDurationSum="300.00" startedHalts="0.00" meanVehicleNumber="5.00" maxVehicleNumber="5" />
   <interval begin="1980.00" end="2040.00" id="emissions_e2" sampledSeconds="319.56" nVehEntered="3" nVehLeft="2" nVehSeen="8" meanSpeed="0.38" meanTimeLoss="38.80" meanOccupancy="66.72" maxOccupancy="75.70" meanMaxJamLengthInVehicles="4.78" meanMaxJamLengthInMeters="35.13" maxJamLengthInVehicles="6" maxJamLengthInMeters="41.80" jamLengthInVehiclesSum="287" jamLengthInMetersSum="2107.51" meanHaltingDuration="141.00" maxHaltingDuration="303.00" haltingDurationSum="1410.00" meanIntervalHaltingDuration="27.60" maxIntervalHaltingDuration="37.00" intervalHaltingDurationSum="276.00" startedHalts="6.00" meanVehicleNumber="5.33" maxVehicleNumber="6" />
   <interval begin="2040.00" end="2100.00" id="emissions_e2" sampledSeconds="360.00" nVehEntered="0" nVehLeft="0" nVehSeen="6" meanSpeed="0.00" meanTimeLoss="60.00" meanOccupancy="69.75" maxOccupancy="69.75" meanMaxJamLengthInVehicles="6.00" meanMaxJamLengthInMeters="41.80" maxJamLengthInVehicles="6" maxJamLengthInMeters="41.80" jamLengthInVehiclesSum="360" jamLengthInMetersSum="2507.94" meanHaltingDuration="93.33" maxHaltingDuration="97.00" haltingDurationSum="560.00" meanIntervalHaltingDuration="60.00" maxIntervalHaltingDuration="60.00" intervalHaltingDurationSum="360.00" startedHalts="0.00" meanVehicleNumber="6.00" maxVehicleNumber="6" />
   <interval begin="2100.00" end="2160.00" id="emissions_e2" sampledSeconds="360.00" nVehEntered="0" nVehLeft="0" nVehSeen="6" meanSpeed="0.00" meanTimeLoss="60.00" meanOccupancy="69.75" maxOccupancy="69.75" meanMaxJamLengthInVehicles="6.00" meanMaxJamLengthInMeters="41.80" maxJamLengthInVehicles="6" maxJamLengthInMeters="41.80" jamLengthInVehiclesSum="360" jamLengthInMetersSum="2507.94" meanHaltingDuration="153.33" maxHaltingDuration="157.00" haltingDurationSum="920.00" meanIntervalHaltingDuration="60.00" maxIntervalHaltingDuration="60.00" intervalHaltingDurationSum="360.00" startedHalts="0.00" meanVehicleNumber="6.00" maxVehicleNumber="6" />
   <interval begin="2160.00" end="2220.00" id="emissions_e2" sampledSeconds="360.00" nVehEntered="0" nVehLeft="0" nVehSeen="6" meanSpeed="0.00" meanTimeLoss="60.00" meanOccupancy="69.75" maxOccupancy="69.75" meanMaxJamLengthInVehicles="6.00" meanMaxJamLengthInMeters="41.80" maxJamLengthInVehicles="6" maxJamLengthInMeters="41.80" jamLengthInVehiclesSum="360" jamLengthInMetersSum="2507.94" meanHaltingDuration="213.33" maxHaltingDuration="217.00" haltingDurationSum="1280.00" meanIntervalHaltingDuration="60.00" maxIntervalHaltingDuration="60.00" intervalHaltingDurationSum="360.00" startedHalts="0.00" meanVehicleNumber="6.00" maxVehicleNumber="6" />
   <interval begin="2220.00" end="2280.00" id="emissions_e2" sampledSeconds="360.00" nVehEntered="0" nVehLeft="0" nVehSeen="6" meanSpeed="0.00" meanTimeLoss="60.00" meanOccupancy="69.75" maxOccupancy="69.75" meanMaxJamLengthInVehicles="6.00" meanMaxJamLengthInMeters="41.80" maxJamLengthInVehicles="6" maxJamLengthInMeters="41.80" jamLengthInVehiclesSum="360" jamLengthInMetersSum="2507.94" meanHaltingDuration="273.33" maxHaltingDuration="277.00" haltingDurationSum="1640.00" meanIntervalHaltingDuration="60.00" maxIntervalHaltingDuration="60.00" intervalHaltingDurationSum="360.00" startedHalts="0.00" meanVehicleNumber="6.00" maxVehicleNumber="6" />
   <interval begin="2280.00" end="2340.00" id="emissions_e2" sampledSeconds="352.71" nVehEntered="1" nVehLeft="1" nVehSeen="7" meanSpeed="0.12" meanTimeLoss="49.93" meanOccupancy="68.29" maxOccupancy="69.75" meanMaxJamLengthInVehicles="5.52" meanMaxJamLengthInMeters="38.27" maxJamLengthInVehicles="6" maxJamLengthInMeters="41.80" jamLengthInVehiclesSum="333" jamLengthInMetersSum="2305.86" meanHaltingDuration="152.36" maxHaltingDuration="301.00" haltingDurationSum="1676.00" meanIntervalHaltingDuration="28.45" maxIntervalHaltingDuration="32.00" intervalHaltingDurationSum="313.00" startedHalts="6.00" meanVehicleNumber="5.88" maxVehicleNumber="6" />
   <interval begin="2340.00" end="2400.00" id="emissions_e2" sampledSeconds="360.00" nVehEntered="0" nVehLeft="0" nVehSeen="6" meanSpeed="0.00" meanTimeLoss="60.00" meanOccupancy="69.75" maxOccupancy="69.75" meanMaxJamLengthInVehicles="6.00" meanMaxJamLengthInMeters="41.80" maxJamLengthInVehicles="6" maxJamLengthInMeters="41.80" jamLengthInVehiclesSum="360" jamLengthInMetersSum="2507.94" meanHaltingDuration="88.50" maxHaltingDuration="92.00" haltingDurationSum="531.00" meanIntervalHaltingDuration="60.00" maxIntervalHaltingDuration="60.00" intervalHaltingDurationSum="360.00" startedHalts="0.00" meanVehicleNumber="6.00" maxVehicleNumber="6" />
   <interval begin="2400.00" end="2460.00" id="emissions_e2" sampledSeconds="360.00" nVehEntered="0" nVehLeft="0" nVehSeen="6" meanSpeed="0.00" meanTimeLoss="60.00" meanOccupancy="69.75" maxOccupancy="69.75" meanMaxJamLengthInVehicles="6.00" meanMaxJamLengthInMeters="41.80" maxJamLengthInVehicles="6" maxJamLengthInMeters="41.80" jamLengthInVehiclesSum="360" jamLengthInMetersSum="2507.94" meanHaltingDuration="148.50" maxHaltingDuration="152.00" haltingDurationSum="891.00" meanIntervalHaltingDuration="60.00" maxIntervalHaltingDuration="60.00" intervalHaltingDurationSum="360.00" startedHalts="0.00" meanVehicleNumber="6.00" maxVehicleNumber="6" />
   <interval begin="2460.00" end="2520.00" id="emissions_e2" sampledSeconds="360.00" nVehEntered="0" nVehLeft="0" nVehSeen="6" meanSpeed="0.00" meanTimeLoss="60.00" meanOccupancy="69.75" maxOccupancy="69.75" meanMaxJamLengthInVehicles="6.00" meanMaxJamLengthInMeters="41.80" maxJamLengthInVehicles="6" maxJamLengthInMeters="41.80" jamLengthInVehiclesSum="360" jamLengthInMetersSum="2507.94" meanHaltingDuration="208.50" maxHaltingDuration="212.00" haltingDurationSum="1251.00" meanIntervalHaltingDuration="60.00" maxIntervalHaltingDuration="60.00" intervalHaltingDurationSum="360.00" startedHalts="0.00" meanVehicleNumber="6.00" maxVehicleNumber="6" />
   <interval begin="2520.00" end="2580.00" id="emissions_e2" sampledSeconds="360.00" nVehEntered="0" nVehLeft="0" nVehSeen="6" meanSpeed="0.00" meanTimeLoss="60.00" meanOccupancy="69.75" maxOccupancy="69.75" meanMaxJamLengthInVehicles="6.00" meanMaxJamLengthInMeters="41.80" maxJamLengthInVehicles="6" maxJamLengthInMeters="41.80" jamLengthInVehiclesSum="360" jamLengthInMetersSum="2507.94" meanHaltingDuration="268.50" maxHaltingDuration="272.00" haltingDurationSum="1611.00" meanIntervalHaltingDuration="60.00" maxIntervalHaltingDuration="60.00" intervalHaltingDurationSum="360.00" startedHalts="0.00" meanVehicleNumber="6.00" maxVehicleNumber="6" />
   <interval begin="2580.00" end="2640.00" id="emissions_e2" sampledSeconds="353.07" nVehEntered="1" nVehLeft="1" nVehSeen="7" meanSpeed="0.13" meanTimeLoss="49.93" meanOccupancy="68.05" maxOccupancy="69.75" meanMaxJamLengthInVehicles="5.55" meanMaxJamLengthInMeters="38.55" maxJamLengthInVehicles="6" maxJamLengthInMeters="41.80" jamLengthInVehiclesSum="335" jamLengthInMetersSum="2322.93" meanHaltingDuration="162.67" maxHaltingDuration="295.00" haltingDurationSum="1952.00" meanIntervalHaltingDuration="28.42" maxIntervalHaltingDuration="34.00" intervalHaltingDurationSum="341.00" startedHalts="6.00" meanVehicleNumber="5.90" maxVehicleNumber="6" />