<?xml version="1.0" encoding="UTF-8"?>

<!-- generated on 2025-04-30 02:28:55 by Eclipse SUMO GUI Version 1.22.0
<sumoConfiguration xmlns:xsi="http://www.w3.org/2001/XMLSchema-instance" xsi:noNamespaceSchemaLocation="http://sumo.dlr.de/xsd/sumoConfiguration.xsd">

    <input>
        <net-file value="quartier.net.xml"/>
        <route-files value="quartier.rou.xml"/>
        <additional-files value="quartier.add.xml"/>
    </input>

    <time>
        <begin value="0"/>
        <end value="3600"/>
    </time>

    <processing>
        <ignore-route-errors value="true"/>
    </processing>

    <report>
        <no-warnings value="true"/>
        <duration-log.disable value="true"/>
        <no-step-log value="true"/>
    </report>

    <traci_server>
        <remote-port value="60682"/>
    </traci_server>

    <gui_only>
        <quit-on-end value="true"/>
        <start value="true"/>
    </gui_only>

</sumoConfiguration>
-->

<detector xmlns:xsi="http://www.w3.org/2001/XMLSchema-instance" xsi:noNamespaceSchemaLocation="http://sumo.dlr.de/xsd/det_e2_file.xsd">
   <interval begin="0.00" end="60.00" id="emissions_e3" sampledSeconds="37.02" nVehEntered="7" nVehLeft="6" nVehSeen="7" meanSpeed="9.73" meanTimeLoss="1.32" meanOccupancy="3.61" maxOccupancy="20.00" meanMaxJamLengthInVehicles="0.00" meanMaxJamLengthInMeters="0.00" maxJamLengthInVehicles="0" maxJamLengthInMeters="0.00" jamLengthInVehiclesSum="0" jamLengthInMetersSum="0.00" meanHaltingDuration="0.00" maxHaltingDuration="0.00" haltingDurationSum="0.00" meanIntervalHaltingDuration="0.00" maxIntervalHaltingDuration="0.00" intervalHaltingDurationSum="0.00" startedHalts="0.00" meanVehicleNumber="0.68" maxVehicleNumber="3" />
   <interval begin="60.00" end="120.00" id="emissions_e3" sampledSeconds="44.52" nVehEntered="8" nVehLeft="8" nVehSeen="9" meanSpeed="9.76" meanTimeLoss="1.27" meanOccupancy="4.82" maxOccupancy="20.00" meanMaxJamLengthInVehicles="0.00" meanMaxJamLengthInMeters="0.00" maxJamLengthInVehicles="0" maxJamLengthInMeters="0.00" jamLengthInVehiclesSum="0" jamLengthInMetersSum="0.00" meanHaltingDuration="0.00" maxHaltingDuration="0.00" haltingDurationSum="0.00" meanIntervalHaltingDuration="0.00" maxIntervalHaltingDuration="0.00" intervalHaltingDurationSum="0.00" startedHalts="0.00" meanVehicleNumber="0.88" maxVehicleNumber="2" />
   <interval begin="120.00" end="180.00" id="emissions_e3" sampledSeconds="56.49" nVehEntered="10" nVehLeft="9" nVehSeen="11" meanSpeed="9.41" meanTimeLoss="1.57" meanOccupancy="6.87" maxOccupancy="20.00" meanMaxJamLengthInVehicles="0.00" meanMaxJamLengthInMeters="0.00" maxJamLengthInVehicles="0" maxJamLengthInMeters="0.00" jamLengthInVehiclesSum="0" jamLengthInMetersSum="0.00" meanHaltingDuration="0.00" maxHaltingDuration="0.00" haltingDurationSum="0.00" meanIntervalHaltingDuration="0.00" maxIntervalHaltingDuration="0.00" intervalHaltingDurationSum="0.00" startedHalts="0.00" meanVehicleNumber="1.13" maxVehicleNumber="3" />
   <interval begin="180.00" end="240.00" id="emissions_e3" sampledSeconds="276.87" nVehEntered="6" nVehLeft="1" nVehSeen="8" meanSpeed="0.58" meanTimeLoss="33.22" meanOccupancy="31.18" maxOccupancy="50.61" meanMaxJamLengthInVehicles="4.07" meanMaxJamLengthInMeters="19.74" maxJamLengthInVehicles="7" maxJamLengthInMeters="37.43" jamLengthInVehiclesSum="244" jamLengthInMetersSum="1184.46" meanHaltingDuration="35.86" maxHaltingDuration="59.00" haltingDurationSum="251.00" meanIntervalHaltingDuration="35.86" maxIntervalHaltingDuration="59.00" intervalHaltingDurationSum="251.00" startedHalts="7.00" meanVehicleNumber="4.67" maxVehicleNumber="7" />
   <interval begin="240.00" end="300.00" id="emissions_e3" sampledSeconds="496.78" nVehEntered="3" nVehLeft="1" nVehSeen="10" meanSpeed="0.05" meanTimeLoss="49.49" meanOccupancy="59.05" maxOccupancy="64.21" meanMaxJamLengthInVehicles="8.15" meanMaxJamLengthInMeters="43.04" maxJamLengthInVehicles="9" maxJamLengthInMeters="47.70" jamLengthInVehiclesSum="489" jamLengthInMetersSum="2582.55" meanHaltingDuration="82.44" maxHaltingDuration="119.00" haltingDurationSum="742.00" meanIntervalHaltingDuration="54.55" maxIntervalHaltingDuration="60.00" intervalHaltingDurationSum="491.00" startedHalts="2.00" meanVehicleNumber="8.32" maxVehicleNumber="9" />
   <interval begin="300.00" end="360.00" id="emissions_e3" sampledSeconds="540.00" nVehEntered="0" nVehLeft="0" nVehSeen="9" meanSpeed="0.00" meanTimeLoss="60.00" meanOccupancy="64.21" maxOccupancy="64.21" meanMaxJamLengthInVehicles="9.00" meanMaxJamLengthInMeters="47.61" maxJamLengthInVehicles="9" maxJamLengthInMeters="47.61" jamLengthInVehiclesSum="540" jamLengthInMetersSum="2856.88" meanHaltingDuration="142.44" maxHaltingDuration="179.00" haltingDurationSum="1282.00" meanIntervalHaltingDuration="60.00" maxIntervalHaltingDuration="60.00" intervalHaltingDurationSum="540.00" startedHalts="0.00" meanVehicleNumber="9.00" maxVehicleNumber="9" />
   <interval begin="360.00" end="420.00" id="emissions_e3" sampledSeconds="540.00" nVehEntered="0" nVehLeft="0" nVehSeen="9" meanSpeed="0.00" meanTimeLoss="60.00" meanOccupancy="64.21" maxOccupancy="64.21" meanMaxJamLengthInVehicles="9.00" meanMaxJamLengthInMeters="47.61" maxJamLengthInVehicles="9" maxJamLengthInMeters="47.61" jamLengthInVehiclesSum="540" jamLengthInMetersSum="2856.88" meanHaltingDuration="202.44" maxHaltingDuration="239.00" haltingDurationSum="1822.00" meanIntervalHaltingDuration="60.00" maxIntervalHaltingDuration="60.00" intervalHaltingDurationSum="540.00" startedHalts="0.00" meanVehicleNumber="9.00" maxVehicleNumber="9" />
   <interval begin="420.00" end="480.00" id="emissions_e3" sampledSeconds="528.41" nVehEntered="1" nVehLeft="1" nVehSeen="10" meanSpeed="0.11" meanTimeLoss="52.45" meanOccupancy="63.39" maxOccupancy="67.21" meanMaxJamLengthInVehicles="8.32" meanMaxJamLengthInMeters="44.46" maxJamLengthInVehicles="9" maxJamLengthInMeters="50.00" jamLengthInVehiclesSum="511" jamLengthInMetersSum="2720.31" meanHaltingDuration="137.71" maxHaltingDuration="279.00" haltingDurationSum="2341.00" meanIntervalHaltingDuration="30.53" maxIntervalHaltingDuration="60.00" intervalHaltingDurationSum="519.00" startedHalts="8.00" meanVehicleNumber="8.83" maxVehicleNumber="9" />
   <interval begin="480.00" end="540.00" id="emissions_e3" sampledSeconds="540.00" nVehEntered="0" nVehLeft="0" nVehSeen="9" meanSpeed="0.00" meanTimeLoss="60.00" meanOccupancy="67.21" maxOccupancy="67.21" meanMaxJamLengthInVehicles="9.00" meanMaxJamLengthInMeters="49.12" maxJamLengthInVehicles="9" maxJamLengthInMeters="49.13" jamLengthInVehiclesSum="540" jamLengthInMetersSum="2946.93" meanHaltingDuration="96.00" maxHaltingDuration="278.00" haltingDurationSum="864.00" meanIntervalHaltingDuration="60.00" maxIntervalHaltingDuration="60.00" intervalHaltingDurationSum="540.00" startedHalts="0.00" meanVehicleNumber="9.00" maxVehicleNumber="9" />
   <interval begin="540.00" end="600.00" id="emissions_e3" sampledSeconds="540.00" nVehEntered="0" nVehLeft="0" nVehSeen="9" meanSpeed="0.00" meanTimeLoss="60.00" meanOccupancy="67.21" maxOccupancy="67.21" meanMaxJamLengthInVehicles="9.00" meanMaxJamLengthInMeters="49.11" maxJamLengthInVehicles="9" maxJamLengthInMeters="49.11" jamLengthInVehiclesSum="540" jamLengthInMetersSum="2946.88" meanHaltingDuration="156.00" maxHaltingDuration="338.00" haltingDurationSum="1404.00" meanIntervalHaltingDuration="60.00" maxIntervalHaltingDuration="60.00" intervalHaltingDurationSum="540.00" startedHalts="0.00" meanVehicleNumber="9.00" maxVehicleNumber="9" />
   <interval begin="600.00" end="660.00" id="emissions_e3" sampledSeconds="540.00" nVehEntered="0" nVehLeft="0" nVehSeen="9" meanSpeed="0.00" meanTimeLoss="60.00" meanOccupancy="67.21" maxOccupancy="67.21" meanMaxJamLengthInVehicles="9.00" meanMaxJamLengthInMeters="49.11" maxJamLengthInVehicles="9" maxJamLengthInMeters="49.11" jamLengthInVehiclesSum="540" jamLengthInMetersSum="2946.87" meanHaltingDuration="216.00" maxHaltingDuration="398.00" haltingDurationSum="1944.00" meanIntervalHaltingDuration="60.00" maxIntervalHaltingDuration="60.00" intervalHaltingDurationSum="540.00" startedHalts="0.00" meanVehicleNumber="9.00" maxVehicleNumber="9" />
   <interval begin="660.00" end="720.00" id="emissions_e3" sampledSeconds="540.00" nVehEntered="0" nVehLeft="0" nVehSeen="9" meanSpeed="0.00" meanTimeLoss="60.00" meanOccupancy="67.21" maxOccupancy="67.21" meanMaxJamLengthInVehicles="9.00" meanMaxJamLengthInMeters="49.11" maxJamLengthInVehicles="9" maxJamLengthInMeters="49.11" jamLengthInVehiclesSum="540" jamLengthInMetersSum="2946.87" meanHaltingDuration="276.00" maxHaltingDuration="458.00" haltingDurationSum="2484.00" meanIntervalHaltingDuration="60.00" maxIntervalHaltingDuration="60.00" intervalHaltingDurationSum="540.00" startedHalts="0.00" meanVehicleNumber="9.00" maxVehicleNumber="9" />
   <interval begin="720.00" end="780.00" id="emissions_e3" sampledSeconds="525.92" nVehEntered="0" nVehLeft="1" nVehSeen="9" meanSpeed="0.07" meanTimeLoss="58.14" meanOccupancy="65.53" maxOccupancy="67.21" meanMaxJamLengthInVehicles="8.72" meanMaxJamLengthInMeters="48.50" maxJamLengthInVehicles="9" maxJamLengthInMeters="49.11" jamLengthInVehiclesSum="523" jamLengthInMetersSum="2909.92" meanHaltingDuration="300.80" maxHaltingDuration="518.00" haltingDurationSum="3008.00" meanIntervalHaltingDuration="52.40" maxIntervalHaltingDuration="60.00" intervalHaltingDurationSum="524.00" startedHalts="1.00" meanVehicleNumber="8.77" maxVehicleNumber="9" />
   <interval begin="780.00" end="840.00" id="emissions_e3" sampledSeconds="480.00" nVehEntered="0" nVehLeft="0" nVehSeen="8" meanSpeed="0.00" meanTimeLoss="60.00" meanOccupancy="60.61" maxOccupancy="60.61" meanMaxJamLengthInVehicles="8.00" meanMaxJamLengthInMeters="44.82" maxJamLengthInVehicles="8" maxJamLengthInMeters="44.88" jamLengthInVehiclesSum="480" jamLengthInMetersSum="2688.93" meanHaltingDuration="360.25" maxHaltingDuration="578.00" haltingDurationSum="2882.00" meanIntervalHaltingDuration="60.00" maxIntervalHaltingDuration="60.00" intervalHaltingDurationSum="480.00" startedHalts="0.00" meanVehicleNumber="8.00" maxVehicleNumber="8" />
   <interval begin="840.00" end="900.00" id="emissions_e3" sampledSeconds="480.00" nVehEntered="0" nVehLeft="0" nVehSeen="8" meanSpeed="0.00" meanTimeLoss="60.00" meanOccupancy="60.61" maxOccupancy="60.61" meanMaxJamLengthInVehicles="8.00" meanMaxJamLengthInMeters="44.81" maxJamLengthInVehicles="8" maxJamLengthInMeters="44.81" jamLengthInVehiclesSum="480" jamLengthInMetersSum="2688.80" meanHaltingDuration="420.25" maxHaltingDuration="638.00" haltingDurationSum="3362.00" meanIntervalHaltingDuration="60.00" maxIntervalHaltingDuration="60.00" intervalHaltingDurationSum="480.00" startedHalts="0.00" meanVehicleNumber="8.00" maxVehicleNumber="8" />
   <interval begin="900.00" end="960.00" id="emissions_e3" sampledSeconds="525.00" nVehEntered="1" nVehLeft="0" nVehSeen="9" meanSpeed="0.00" meanTimeLoss="58.31" meanOccupancy="63.31" maxOccupancy="64.21" meanMaxJamLengthInVehicles="8.72" meanMaxJamLengthInMeters="46.82" maxJamLengthInVehicles="9" maxJamLengthInMeters="47.72" jamLengthInVehiclesSum="523" jamLengthInMetersSum="2809.39" meanHaltingDuration="431.78" maxHaltingDuration="698.00" haltingDurationSum="3886.00" meanIntervalHaltingDuration="58.22" maxIntervalHaltingDuration="60.00" intervalHaltingDurationSum="524.00" startedHalts="1.00" meanVehicleNumber="8.75" maxVehicleNumber="9" />
   <interval begin="960.00" end="1020.00" id="emissions_e3" sampledSeconds="540.00" nVehEntered="0" nVehLeft="0" nVehSeen="9" meanSpeed="0.00" meanTimeLoss="60.00" meanOccupancy="64.21" maxOccupancy="64.21" meanMaxJamLengthInVehicles="9.00" meanMaxJamLengthInMeters="47.61" maxJamLengthInVehicles="9" maxJamLengthInMeters="47.61" jamLengthInVehiclesSum="540" jamLengthInMetersSum="2856.87" meanHaltingDuration="491.78" maxHaltingDuration="758.00" haltingDurationSum="4426.00" meanIntervalHaltingDuration="60.00" maxIntervalHaltingDuration="60.00" intervalHaltingDurationSum="540.00" startedHalts="0.00" meanVehicleNumber="9.00" maxVehicleNumber="9" />
   <interval begin="1020.00" end="1080.00" id="emissions_e3" sampledSeconds="530.41" nVehEntered="0" nVehLeft="1" nVehSeen="9" meanSpeed="0.09" meanTimeLoss="58.56" meanOccupancy="62.92" maxOccupancy="64.21" meanMaxJamLengthInVehicles="8.38" meanMaxJamLengthInMeters="44.55" maxJamLengthInVehicles="9" maxJamLengthInMeters="47.61" jamLengthInVehiclesSum="511" jamLengthInMetersSum="2701.03" meanHaltingDuration="329.53" maxHaltingDuration="816.00" haltingDurationSum="4943.00" meanIntervalHaltingDuration="34.47" maxIntervalHaltingDuration="60.00" intervalHaltingDurationSum="517.00" startedHalts="6.00" meanVehicleNumber="8.85" maxVehicleNumber="9" />
   <interval begin="1080.00" end="1140.00" id="emissions_e3" sampledSeconds="538.45" nVehEntered="1" nVehLeft="0" nVehSeen="9" meanSpeed="0.04" meanTimeLoss="59.65" meanOccupancy="63.85" maxOccupancy="64.21" meanMaxJamLengthInVehicles="8.82" meanMaxJamLengthInMeters="46.58" maxJamLengthInVehicles="9" maxJamLengthInMeters="48.76" jamLengthInVehiclesSum="530" jamLengthInMetersSum="2796.63" meanHaltingDuration="120.09" maxHaltingDuration="608.00" haltingDurationSum="1321.00" meanIntervalHaltingDuration="48.55" maxIntervalHaltingDuration="60.00" intervalHaltingDurationSum="534.00" startedHalts="4.00" meanVehicleNumber="8.98" maxVehicleNumber="9" />
   <interval begin="1140.00" end="1200.00" id="emissions_e3" sampledSeconds="540.00" nVehEntered="0" nVehLeft="0" nVehSeen="9" meanSpeed="0.00" meanTimeLoss="60.00" meanOccupancy="64.21" maxOccupancy="64.21" meanMaxJamLengthInVehicles="9.00" meanMaxJamLengthInMeters="47.61" maxJamLengthInVehicles="9" maxJamLengthInMeters="47.61" jamLengthInVehiclesSum="540" jamLengthInMetersSum="2856.86" meanHaltingDuration="120.89" maxHaltingDuration="125.00" haltingDurationSum="1088.00" meanIntervalHaltingDuration="60.00" maxIntervalHaltingDuration="60.00" intervalHaltingDurationSum="540.00" startedHalts="0.00" meanVehicleNumber="9.00" maxVehicleNumber="9" />
   <interval begin="1200.00" end="1260.00" id="emissions_e3" sampledSeconds="540.00" nVehEntered="0" nVehLeft="0" nVehSeen="9" meanSpeed="0.00" meanTimeLoss="60.00" meanOccupancy="64.21" maxOccupancy="64.21" meanMaxJamLengthInVehicles="9.00" meanMaxJamLengthInMeters="47.61" maxJamLengthInVehicles="9" maxJamLengthInMeters="47.61" jamLengthInVehiclesSum="540" jamLengthInMetersSum="2856.86" meanHaltingDuration="180.89" maxHaltingDuration="185.00" haltingDurationSum="1628.00" meanIntervalHaltingDuration="60.00" maxIntervalHaltingDuration="60.00" intervalHaltingDurationSum="540.00" startedHalts="0.00" meanVehicleNumber="9.00" maxVehicleNumber="9" />
   <interval begin="1260.00" end="1320.00" id="emissions_e3" sampledSeconds="540.00" nVehEntered="0" nVehLeft="0" nVehSeen="9" meanSpeed="0.00" meanTimeLoss="60.00" meanOccupancy="64.21" maxOccupancy="64.21" meanMaxJamLengthInVehicles="9.00" meanMaxJamLengthInMeters="47.61" maxJamLengthInVehicles="9" maxJamLengthInMeters="47.61" jamLengthInVehiclesSum="540" jamLengthInMetersSum="2856.86" meanHaltingDuration="240.89" maxHaltingDuration="245.00" haltingDurationSum="2168.00" meanIntervalHaltingDuration="60.00" maxIntervalHaltingDuration="60.00" intervalHaltingDurationSum="540.00" startedHalts="0.00" meanVehicleNumber="9.00" maxVehicleNumber="9" />
   <interval begin="1320.00" end="1380.00" id="emissions_e3" sampledSeconds="531.93" nVehEntered="0" nVehLeft="2" nVehSeen="9" meanSpeed="0.04" meanTimeLoss="58.94" meanOccupancy="63.61" maxOccupancy="64.21" meanMaxJamLengthInVehicles="8.73" meanMaxJamLengthInMeters="46.43" maxJamLengthInVehicles="9" maxJamLengthInMeters="47.61" jamLengthInVehiclesSum="525" jamLengthInMetersSum="2786.93" meanHaltingDuration="217.82" maxHaltingDuration="301.00" haltingDurationSum="2396.00" meanIntervalHaltingDuration="43.00" maxIntervalHaltingDuration="60.00" intervalHaltingDurationSum="473.00" startedHalts="3.00" meanVehicleNumber="8.88" maxVehicleNumber="9" />
   <interval begin="1380.00" end="1440.00" id="emissions_e3" sampledSeconds="472.03" nVehEntered="1" nVehLeft="0" nVehSeen="8" meanSpeed="0.07" meanTimeLoss="58.69" meanOccupancy="65.85" maxOccupancy="67.20" meanMaxJamLengthInVehicles="7.58" meanMaxJamLengthInMeters="45.59" maxJamLengthInVehicles="8" maxJamLengthInMeters="48.43" jamLengthInVehiclesSum="463" jamLengthInMetersSum="2777.00" meanHaltingDuration="178.45" maxHaltingDuration="361.00" haltingDurationSum="1963.00" meanIntervalHaltingDuration="42.55" maxIntervalHaltingDuration="60.00" intervalHaltingDurationSum="468.00" startedHalts="5.00" meanVehicleNumber="7.88" maxVehicleNumber="8" />
   <interval begin="1440.00" end="1500.00" id="emissions_e3" sampledSeconds="480.00" nVehEntered="0" nVehLeft="0" nVehSeen="8" meanSpeed="0.00" meanTimeLoss="60.00" meanOccupancy="67.20" maxOccupancy="67.20" meanMaxJamLengthInVehicles="8.00" meanMaxJamLengthInMeters="48.11" maxJamLengthInVehicles="8" maxJamLengthInMeters="48.11" jamLengthInVehiclesSum="480" jamLengthInMetersSum="2886.43" meanHaltingDuration="192.50" maxHaltingDuration="421.00" haltingDurationSum="1540.00" meanIntervalHaltingDuration="60.00" maxIntervalHaltingDuration="60.00" intervalHaltingDurationSum="480.00" startedHalts="0.00" meanVehicleNumber="8.00" maxVehicleNumber="8" />
   <interval begin="1500.00" end="1560.00" id="emissions_e3" sampledSeconds="480.00" nVehEntered="0" nVehLeft="0" nVehSeen="8" meanSpeed="0.00" meanTimeLoss="60.00" meanOccupancy="67.20" maxOccupancy="67.20" meanMaxJamLengthInVehicles="8.00" meanMaxJamLengthInMeters="48.11" maxJamLengthInVehicles="8" maxJamLengthInMeters="48.11" jamLengthInVehiclesSum="480" jamLengthInMetersSum="2886.43" meanHaltingDuration="252.50" maxHaltingDuration="481.00" haltingDurationSum="2020.00" meanIntervalHaltingDuration="60.00" maxIntervalHaltingDuration="60.00" intervalHaltingDurationSum="480.00" startedHalts="0.00" meanVehicleNumber="8.00" maxVehicleNumber="8" />
   <interval begin="1560.00" end="1620.00" id="emissions_e3" sampledSeconds="480.00" nVehEntered="0" nVehLeft="0" nVehSeen="8" meanSpeed="0.00" meanTimeLoss="60.00" meanOccupancy="67.20" maxOccupancy="67.20" meanMaxJamLengthInVehicles="8.00" meanMaxJamLengthInMeters="48.11" maxJamLengthInVehicles="8" maxJamLengthInMeters="48.11" jamLengthInVehiclesSum="480" jamLengthInMetersSum="2886.43" meanHaltingDuration="312.50" maxHaltingDuration="541.00" haltingDurationSum="2500.00" meanIntervalHaltingDuration="60.00" maxIntervalHaltingDuration="60.00" intervalHaltingDurationSum="480.00" startedHalts="0.00" meanVehicleNumber="8.00" maxVehicleNumber="8" />
   <interval begin="1620.00" end="1680.00" id="emissions_e3" sampledSeconds="480.00" nVehEntered="0" nVehLeft="0" nVehSeen="8" meanSpeed="0.00" meanTimeLoss="59.99" meanOccupancy="67.20" maxOccupancy="67.20" meanMaxJamLengthInVehicles="8.00" meanMaxJamLengthInMeters="48.12" maxJamLengthInVehicles="8" maxJamLengthInMeters="48.72" jamLengthInVehiclesSum="480" jamLengthInMetersSum="2887.23" meanHaltingDuration="372.50" maxHaltingDuration="601.00" haltingDurationSum="2980.00" meanIntervalHaltingDuration="60.00" maxIntervalHaltingDuration="60.00" intervalHaltingDurationSum="480.00" startedHalts="0.00" meanVehicleNumber="8.00" maxVehicleNumber="8" />
   <interval begin="1680.00" end="1740.00" id="emissions_e3" sampledSeconds="480.00" nVehEntered="0" nVehLeft="0" nVehSeen="8" meanSpeed="0.07" meanTimeLoss="59.69" meanOccupancy="60.75" maxOccupancy="65.18" meanMaxJamLengthInVehicles="7.92" meanMaxJamLengthInMeters="44.99" maxJamLengthInVehicles="8" maxJamLengthInMeters="49.11" jamLengthInVehiclesSum="476" jamLengthInMetersSum="2701.39" meanHaltingDuration="345.80" maxHaltingDuration="661.00" haltingDurationSum="3458.00" meanIntervalHaltingDuration="47.80" maxIntervalHaltingDuration="60.00" intervalHaltingDurationSum="478.00" startedHalts="2.00" meanVehicleNumber="8.00" maxVehicleNumber="8" />
   <interval begin="1740.00" end="1800.00" id="emissions_e3" sampledSeconds="480.00" nVehEntered="0" nVehLeft="0" nVehSeen="8" meanSpeed="0.00" meanTimeLoss="60.00" meanOccupancy="60.61" maxOccupancy="60.61" meanMaxJamLengthInVehicles="8.00" meanMaxJamLengthInMeters="44.81" maxJamLengthInVehicles="8" maxJamLengthInMeters="44.81" jamLengthInVehiclesSum="480" jamLengthInMetersSum="2688.81" meanHaltingDuration="417.00" maxHaltingDuration="721.00" haltingDurationSum="3336.00" meanIntervalHaltingDuration="60.00" maxIntervalHaltingDuration="60.00" intervalHaltingDurationSum="480.00" startedHalts="0.00" meanVehicleNumber="8.00" maxVehicleNumber="8" />
   <interval begin="1800.00" end="1860.00" id="emissions_e3" sampledSeconds="513.00" nVehEntered="1" nVehLeft="0" nVehSeen="9" meanSpeed="0.00" meanTimeLoss="56.98" meanOccupancy="62.59" maxOccupancy="64.21" meanMaxJamLengthInVehicles="8.52" meanMaxJamLengthInMeters="46.26" maxJamLengthInVehicles="9" maxJamLengthInMeters="47.71" jamLengthInVehiclesSum="511" jamLengthInMetersSum="2775.79" meanHaltingDuration="427.56" maxHaltingDuration="781.00" haltingDurationSum="3848.00" meanIntervalHaltingDuration="56.89" maxIntervalHaltingDuration="60.00" intervalHaltingDurationSum="512.00" startedHalts="1.00" meanVehicleNumber="8.55" maxVehicleNumber="9" />
   <interval begin="1860.00" end="1920.00" id="emissions_e3" sampledSeconds="540.00" nVehEntered="0" nVehLeft="0" nVehSeen="9" meanSpeed="0.00" meanTimeLoss="60.00" meanOccupancy="64.21" maxOccupancy="64.21" meanMaxJamLengthInVehicles="9.00" meanMaxJamLengthInMeters="47.61" maxJamLengthInVehicles="9" maxJamLengthInMeters="47.61" jamLengthInVehiclesSum="540" jamLengthInMetersSum="2856.87" meanHaltingDuration="487.56" maxHaltingDuration="841.00" haltingDurationSum="4388.00" meanIntervalHaltingDuration="60.00" maxIntervalHaltingDuration="60.00" intervalHaltingDurationSum="540.00" startedHalts="0.00" meanVehicleNumber="9.00" maxVehicleNumber="9" />
   <interval begin="1920.00" end="1980.00" id="emissions_e3" sampledSeconds="540.00" nVehEntered="0" nVehLeft="0" nVehSeen="9" meanSpeed="0.00" meanTimeLoss="60.00" meanOccupancy="64.21" maxOccupancy="64.21" meanMaxJamLengthInVehicles="9.00" meanMaxJamLengthInMeters="47.61" maxJamLengthInVehicles="9" maxJamLengthInMeters="47.61" jamLengthInVehiclesSum="540" jamLengthInMetersSum="2856.87" meanHaltingDuration="547.55" maxHaltingDuration="901.00" haltingDurationSum="4928.00" meanIntervalHaltingDuration="60.00" maxIntervalHaltingDuration="60.00" intervalHaltingDurationSum="540.00" startedHalts="0.00" meanVehicleNumber="9.00" maxVehicleNumber="9" />
   <interval begin="1980.00" end="2040.00" id="emissions_e3" sampledSeconds="522.71" nVehEntered="1" nVehLeft="1" nVehSeen="10" meanSpeed="0.13" meanTimeLoss="51.77" meanOccupancy="61.59" maxOccupancy="64.21" meanMaxJamLengthInVehicles="8.13" meanMaxJamLengthInMeters="42.82" maxJamLengthInVehicles="9" maxJamLengthInMeters="47.63" jamLengthInVehiclesSum="498" jamLengthInMetersSum="2600.27" meanHaltingDuration="301.82" maxHaltingDuration="908.00" haltingDurationSum="5131.00" meanIntervalHaltingDuration="29.53" maxIntervalHaltingDuration="52.00" intervalHaltingDurationSum="502.00" startedHalts="9.00" meanVehicleNumber="8.72" maxVehicleNumber="9" />
   <interval begin="2040.00" end="2100.00" id="emissions_e3" sampledSeconds="540.00" nVehEntered="0" nVehLeft="0" nVehSeen="9" meanSpeed="0.00" meanTimeLoss="60.00" meanOccupancy="64.21" maxOccupancy="64.21" meanMaxJamLengthInVehicles="9.00" meanMaxJamLengthInMeters="47.61" maxJamLengthInVehicles="9" maxJamLengthInMeters="47.61" jamLengthInVehiclesSum="540" jamLengthInMetersSum="2856.86" meanHaltingDuration="106.56" maxHaltingDuration="112.00" haltingDurationSum="959.00" meanIntervalHaltingDuration="60.00" maxIntervalHaltingDuration="60.00" intervalHaltingDurationSum="540.00" startedHalts="0.00" meanVehicleNumber="9.00" maxVehicleNumber="9" />
   <interval begin="2100.00" end="2160.00" id="emissions_e3" sampledSeconds="540.00" nVehEntered="0" nVehLeft="0" nVehSeen="9" meanSpeed="0.00" meanTimeLoss="60.00" meanOccupancy="64.21" maxOccupancy="64.21" meanMaxJamLengthInVehicles="9.00" meanMaxJamLengthInMeters="47.61" maxJamLengthInVehicles="9" maxJamLengthInMeters="47.61" jamLengthInVehiclesSum="540" jamLengthInMetersSum="2856.86" meanHaltingDuration="166.56" maxHaltingDuration="172.00" haltingDurationSum="1499.00" meanIntervalHaltingDuration="60.00" maxIntervalHaltingDuration="60.00" intervalHaltingDurationSum="540.00" startedHalts="0.00" meanVehicleNumber="9.00" maxVehicleNumber="9" />
   <interval begin="2160.00" end="2220.00" id="emissions_e3" sampledSeconds="540.00" nVehEntered="0" nVehLeft="0" nVehSeen="9" meanSpeed="0.00" meanTimeLoss="60.00" meanOccupancy="64.21" maxOccupancy="64.21" meanMaxJamLengthInVehicles="9.00" meanMaxJamLengthInMeters="47.61" maxJamLengthInVehicles="9" maxJamLengthInMeters="47.61" jamLengthInVehiclesSum="540" jamLengthInMetersSum="2856.86" meanHaltingDuration="226.56" maxHaltingDuration="232.00" haltingDurationSum="2039.00" meanIntervalHaltingDuration="60.00" maxIntervalHaltingDuration="60.00" intervalHaltingDurationSum="540.00" startedHalts="0.00" meanVehicleNumber="9.00" maxVehicleNumber="9" />
   <interval begin="2220.00" end="2280.00" id="emissions_e3" sampledSeconds="540.00" nVehEntered="0" nVehLeft="0" nVehSeen="9" meanSpeed="0.00" meanTimeLoss="60.00" meanOccupancy="64.21" maxOccupancy="64.21" meanMaxJamLengthInVehicles="9.00" meanMaxJamLengthInMeters="47.61" maxJamLengthInVehicles="9" maxJamLengthInMeters="47.61" jamLengthInVehiclesSum="540" jamLengthInMetersSum="2856.86" meanHaltingDuration="286.56" maxHaltingDuration="292.00" haltingDurationSum="2579.00" meanIntervalHaltingDuration="60.00" maxIntervalHaltingDuration="60.00" intervalHaltingDurationSum="540.00" startedHalts="0.00" meanVehicleNumber="9.00" maxVehicleNumber="9" />
   <interval begin="2280.00" end="2340.00" id="emissions_e3" sampledSeconds="540.00" nVehEntered="0" nVehLeft="0" nVehSeen="9" meanSpeed="0.00" meanTimeLoss="60.00" meanOccupancy="64.21" maxOccupancy="64.21" meanMaxJamLengthInVehicles="9.00" meanMaxJamLengthInMeters="47.61" maxJamLengthInVehicles="9" maxJamLengthInMeters="47.61" jamLengthInVehiclesSum="540" jamLengthInMetersSum="2856.86" meanHaltingDuration="346.56" maxHaltingDuration="352.00" haltingDurationSum="3119.00" meanIntervalHaltingDuration="60.00" maxIntervalHaltingDuration="60.00" intervalHaltingDurationSum="540.00" startedHalts="0.00" meanVehicleNumber="9.00" maxVehicleNumber="9" />
   <interval begin="2340.00" end="2400.00" id="emissions_e3" sampledSeconds="540.00" nVehEntered="0" nVehLeft="0" nVehSeen="9" meanSpeed="0.00" meanTimeLoss="60.00" meanOccupancy="64.21" maxOccupancy="64.21" meanMaxJamLengthInVehicles="9.00" meanMaxJamLengthInMeters="47.61" maxJamLengthInVehicles="9" maxJamLengthInMeters="47.61" jamLengthInVehiclesSum="540" jamLengthInMetersSum="2856.85" meanHaltingDuration="406.56" maxHaltingDuration="412.00" haltingDurationSum="3659.00" meanIntervalHaltingDuration="60.00" maxIntervalHaltingDuration="60.00" intervalHaltingDurationSum="540.00" startedHalts="0.00" meanVehicleNumber="9.00" maxVehicleNumber="9" />
   <interval begin="2400.00" end="2460.00" id="emissions_e3" sampledSeconds="540.00" nVehEntered="0" nVehLeft="0" nVehSeen="9" meanSpeed="0.00" meanTimeLoss="60.00" meanOccupancy="64.21" maxOccupancy="64.21" meanMaxJamLengthInVehicles="9.00" meanMaxJamLengthInMeters="47.61" maxJamLengthInVehicles="9" maxJamLengthInMeters="47.61" jamLengthInVehiclesSum="540" jamLengthInMetersSum="2856.85" meanHaltingDuration="466.56" maxHaltingDuration="472.00" haltingDurationSum="4199.00" meanIntervalHaltingDuration="60.00" maxIntervalHaltingDuration="60.00" intervalHaltingDurationSum="540.00" startedHalts="0.00" meanVehicleNumber="9.00" maxVehicleNumber="9" />
   <interval begin="2460.00" end="2520.00" id="emissions_e3" sampledSeconds="540.00" nVehEntered="0" nVehLeft="0" nVehSeen="9" meanSpeed="0.00" meanTimeLoss="60.00" meanOccupancy="64.21" maxOccupancy="64.21" meanMaxJamLengthInVehicles="9.00" meanMaxJamLengthInMeters="47.61" maxJamLengthInVehicles="9" maxJamLengthInMeters="47.61" jamLengthInVehiclesSum="540" jamLengthInMetersSum="2856.85" meanHaltingDuration="526.55" maxHaltingDuration="532.00" haltingDurationSum="4739.00" meanIntervalHaltingDuration="60.00" maxIntervalHaltingDuration="60.00" intervalHaltingDurationSum="540.00" startedHalts="0.00" meanVehicleNumber="9.00" maxVehicleNumber="9" />
   <interval begin="2520.00" end="2580.00" id="emissions_e3" sampledSeconds="540.00" nVehEntered="0" nVehLeft="0" nVehSeen="9" meanSpeed="0.00" meanTimeLoss="60.00" meanOccupancy="64.21" maxOccupancy="64.21" meanMaxJamLengthInVehicles="9.00" meanMaxJamLengthInMeters="47.61" maxJamLengthInVehicles="9" maxJamLengthInMeters="47.61" jamLengthInVehiclesSum="540" jamLengthInMetersSum="2856.85" meanHaltingDuration="586.55" maxHaltingDuration="592.00" haltingDurationSum="5279.00" meanIntervalHaltingDuration="60.00" maxIntervalHaltingDuration="60.00" intervalHaltingDurationSum="540.00" startedHalts="0.00" meanVehicleNumber="9.00" maxVehicleNumber="9" />
   <interval begin="2580.00" end="2640.00" id="emissions_e3" sampledSeconds="485.16" nVehEntered="1" nVehLeft="2" nVehSeen="10" meanSpeed="0.11" meanTimeLoss="48.12" meanOccupancy="64.46" maxOccupancy="67.20" meanMaxJamLengthInVehicles="7.63" meanMaxJamLengthInMeters="44.27" maxJamLengthInVehicles="9" maxJamLengthInMeters="48.99" jamLengthInVehiclesSum="466" jamLengthInMetersSum="2702.37" meanHaltingDuration="338.41" maxHaltingDuration="607.00" haltingDurationSum="5753.00" meanIntervalHaltingDuration="27.88" maxIntervalHaltingDuration="42.00" intervalHaltingDurationSum="474.00" startedHalts="9.00" meanVehicleNumber="8.12" maxVehicleNumber="9" />