<?xml version="1.0" encoding="UTF-8"?>

<!-- generated on 2025-04-30 02:28:55 by Eclipse SUMO GUI Version 1.22.0
<sumoConfiguration xmlns:xsi="http://www.w3.org/2001/XMLSchema-instance" xsi:noNamespaceSchemaLocation="http://sumo.dlr.de/xsd/sumoConfiguration.xsd">

    <input>
        <net-file value="quartier.net.xml"/>
        <route-files value="quartier.rou.xml"/>
        <additional-files value="quartier.add.xml"/>
    </input>

    <time>
        <begin value="0"/>
        <end value="3600"/>
    </time>

    <processing>
        <ignore-route-errors value="true"/>
    </processing>

    <report>
        <no-warnings value="true"/>
        <duration-log.disable value="true"/>
        <no-step-log value="true"/>
    </report>

    <traci_server>
        <remote-port value="60682"/>
    </traci_server>

    <gui_only>
        <quit-on-end value="true"/>
        <start value="true"/>
    </gui_only>

</sumoConfiguration>
-->

<detector xmlns:xsi="http://www.w3.org/2001/XMLSchema-instance" xsi:noNamespaceSchemaLocation="http://sumo.dlr.de/xsd/det_e2_file.xsd">
   <interval begin="0.00" end="60.00" id="emissions_e6" sampledSeconds="9.86" nVehEntered="1" nVehLeft="1" nVehSeen="1" meanSpeed="5.06" meanTimeLoss="6.42" meanOccupancy="3.46" maxOccupancy="24.00" meanMaxJamLengthInVehicles="0.00" meanMaxJamLengthInMeters="0.00" maxJamLengthInVehicles="0" maxJamLengthInMeters="0.00" jamLengthInVehiclesSum="0" jamLengthInMetersSum="0.00" meanHaltingDuration="1.00" maxHaltingDuration="1.00" haltingDurationSum="1.00" meanIntervalHaltingDuration="1.00" maxIntervalHaltingDuration="1.00" intervalHaltingDurationSum="1.00" startedHalts="1.00" meanVehicleNumber="0.17" maxVehicleNumber="1" />
   <interval begin="60.00" end="120.00" id="emissions_e6" sampledSeconds="32.92" nVehEntered="5" nVehLeft="4" nVehSeen="5" meanSpeed="6.78" meanTimeLoss="3.03" meanOccupancy="1.90" maxOccupancy="10.80" meanMaxJamLengthInVehicles="0.00" meanMaxJamLengthInMeters="0.00" maxJamLengthInVehicles="0" maxJamLengthInMeters="0.00" jamLengthInVehiclesSum="0" jamLengthInMetersSum="0.00" meanHaltingDuration="0.00" maxHaltingDuration="0.00" haltingDurationSum="0.00" meanIntervalHaltingDuration="0.00" maxIntervalHaltingDuration="0.00" intervalHaltingDurationSum="0.00" startedHalts="0.00" meanVehicleNumber="0.62" maxVehicleNumber="3" />
   <interval begin="120.00" end="180.00" id="emissions_e6" sampledSeconds="53.07" nVehEntered="1" nVehLeft="1" nVehSeen="2" meanSpeed="1.64" meanTimeLoss="23.59" meanOccupancy="1.59" maxOccupancy="3.60" meanMaxJamLengthInVehicles="0.63" meanMaxJamLengthInMeters="0.38" maxJamLengthInVehicles="1" maxJamLengthInMeters="0.61" jamLengthInVehiclesSum="38" jamLengthInMetersSum="23.08" meanHaltingDuration="39.00" maxHaltingDuration="39.00" haltingDurationSum="39.00" meanIntervalHaltingDuration="39.00" maxIntervalHaltingDuration="39.00" intervalHaltingDurationSum="39.00" startedHalts="1.00" meanVehicleNumber="0.90" maxVehicleNumber="1" />
   <interval begin="180.00" end="240.00" id="emissions_e6" sampledSeconds="62.00" nVehEntered="1" nVehLeft="1" nVehSeen="2" meanSpeed="0.03" meanTimeLoss="30.93" meanOccupancy="2.01" maxOccupancy="25.21" meanMaxJamLengthInVehicles="1.00" meanMaxJamLengthInMeters="0.61" maxJamLengthInVehicles="1" maxJamLengthInMeters="0.61" jamLengthInVehiclesSum="60" jamLengthInMetersSum="36.43" meanHaltingDuration="50.00" maxHaltingDuration="99.00" haltingDurationSum="100.00" meanIntervalHaltingDuration="30.50" maxIntervalHaltingDuration="60.00" intervalHaltingDurationSum="61.00" startedHalts="1.00" meanVehicleNumber="1.03" maxVehicleNumber="2" />
   <interval begin="240.00" end="300.00" id="emissions_e6" sampledSeconds="60.00" nVehEntered="0" nVehLeft="0" nVehSeen="1" meanSpeed="0.00" meanTimeLoss="60.00" meanOccupancy="1.21" maxOccupancy="1.21" meanMaxJamLengthInVehicles="1.00" meanMaxJamLengthInMeters="0.61" maxJamLengthInVehicles="1" maxJamLengthInMeters="0.61" jamLengthInVehiclesSum="60" jamLengthInMetersSum="36.43" meanHaltingDuration="159.00" maxHaltingDuration="159.00" haltingDurationSum="159.00" meanIntervalHaltingDuration="60.00" maxIntervalHaltingDuration="60.00" intervalHaltingDurationSum="60.00" startedHalts="0.00" meanVehicleNumber="1.00" maxVehicleNumber="1" />
   <interval begin="300.00" end="360.00" id="emissions_e6" sampledSeconds="60.00" nVehEntered="0" nVehLeft="0" nVehSeen="1" meanSpeed="0.00" meanTimeLoss="60.00" meanOccupancy="1.21" maxOccupancy="1.21" meanMaxJamLengthInVehicles="1.00" meanMaxJamLengthInMeters="0.61" maxJamLengthInVehicles="1" maxJamLengthInMeters="0.61" jamLengthInVehiclesSum="60" jamLengthInMetersSum="36.43" meanHaltingDuration="219.00" maxHaltingDuration="219.00" haltingDurationSum="219.00" meanIntervalHaltingDuration="60.00" maxIntervalHaltingDuration="60.00" intervalHaltingDurationSum="60.00" startedHalts="0.00" meanVehicleNumber="1.00" maxVehicleNumber="1" />
   <interval begin="360.00" end="420.00" id="emissions_e6" sampledSeconds="60.00" nVehEntered="0" nVehLeft="0" nVehSeen="1" meanSpeed="0.00" meanTimeLoss="60.00" meanOccupancy="1.21" maxOccupancy="1.21" meanMaxJamLengthInVehicles="1.00" meanMaxJamLengthInMeters="0.61" maxJamLengthInVehicles="1" maxJamLengthInMeters="0.61" jamLengthInVehiclesSum="60" jamLengthInMetersSum="36.43" meanHaltingDuration="279.00" maxHaltingDuration="279.00" haltingDurationSum="279.00" meanIntervalHaltingDuration="60.00" maxIntervalHaltingDuration="60.00" intervalHaltingDurationSum="60.00" startedHalts="0.00" meanVehicleNumber="1.00" maxVehicleNumber="1" />
   <interval begin="420.00" end="480.00" id="emissions_e6" sampledSeconds="62.00" nVehEntered="1" nVehLeft="1" nVehSeen="2" meanSpeed="0.04" meanTimeLoss="30.91" meanOccupancy="2.01" maxOccupancy="25.21" meanMaxJamLengthInVehicles="1.00" meanMaxJamLengthInMeters="0.61" maxJamLengthInVehicles="1" maxJamLengthInMeters="0.61" jamLengthInVehiclesSum="60" jamLengthInMetersSum="36.43" meanHaltingDuration="170.00" maxHaltingDuration="339.00" haltingDurationSum="340.00" meanIntervalHaltingDuration="30.50" maxIntervalHaltingDuration="60.00" intervalHaltingDurationSum="61.00" startedHalts="1.00" meanVehicleNumber="1.03" maxVehicleNumber="2" />
   <interval begin="480.00" end="540.00" id="emissions_e6" sampledSeconds="62.00" nVehEntered="1" nVehLeft="1" nVehSeen="2" meanSpeed="0.04" meanTimeLoss="30.92" meanOccupancy="2.01" maxOccupancy="25.21" meanMaxJamLengthInVehicles="1.00" meanMaxJamLengthInMeters="0.61" maxJamLengthInVehicles="1" maxJamLengthInMeters="0.61" jamLengthInVehiclesSum="60" jamLengthInMetersSum="36.43" meanHaltingDuration="200.00" maxHaltingDuration="399.00" haltingDurationSum="400.00" meanIntervalHaltingDuration="30.50" maxIntervalHaltingDuration="60.00" intervalHaltingDurationSum="61.00" startedHalts="1.00" meanVehicleNumber="1.03" maxVehicleNumber="2" />
   <interval begin="540.00" end="600.00" id="emissions_e6" sampledSeconds="60.77" nVehEntered="1" nVehLeft="1" nVehSeen="2" meanSpeed="0.79" meanTimeLoss="28.86" meanOccupancy="6.73" maxOccupancy="24.00" meanMaxJamLengthInVehicles="0.82" meanMaxJamLengthInMeters="1.45" maxJamLengthInVehicles="1" maxJamLengthInMeters="2.62" jamLengthInVehiclesSum="49" jamLengthInMetersSum="87.00" meanHaltingDuration="15.50" maxHaltingDuration="30.00" haltingDurationSum="31.00" meanIntervalHaltingDuration="15.50" maxIntervalHaltingDuration="30.00" intervalHaltingDurationSum="31.00" startedHalts="2.00" meanVehicleNumber="1.02" maxVehicleNumber="2" />
   <interval begin="600.00" end="660.00" id="emissions_e6" sampledSeconds="60.00" nVehEntered="0" nVehLeft="0" nVehSeen="1" meanSpeed="0.00" meanTimeLoss="60.00" meanOccupancy="5.21" maxOccupancy="5.21" meanMaxJamLengthInVehicles="1.00" meanMaxJamLengthInMeters="2.61" maxJamLengthInVehicles="1" maxJamLengthInMeters="2.61" jamLengthInVehiclesSum="60" jamLengthInMetersSum="156.43" meanHaltingDuration="90.00" maxHaltingDuration="90.00" haltingDurationSum="90.00" meanIntervalHaltingDuration="60.00" maxIntervalHaltingDuration="60.00" intervalHaltingDurationSum="60.00" startedHalts="0.00" meanVehicleNumber="1.00" maxVehicleNumber="1" />
   <interval begin="660.00" end="720.00" id="emissions_e6" sampledSeconds="86.00" nVehEntered="1" nVehLeft="0" nVehSeen="2" meanSpeed="0.52" meanTimeLoss="41.41" meanOccupancy="6.77" maxOccupancy="8.81" meanMaxJamLengthInVehicles="1.25" meanMaxJamLengthInMeters="3.31" maxJamLengthInVehicles="2" maxJamLengthInMeters="5.43" jamLengthInVehiclesSum="75" jamLengthInMetersSum="198.46" meanHaltingDuration="83.00" maxHaltingDuration="150.00" haltingDurationSum="166.00" meanIntervalHaltingDuration="38.00" maxIntervalHaltingDuration="60.00" intervalHaltingDurationSum="76.00" startedHalts="1.00" meanVehicleNumber="1.43" maxVehicleNumber="2" />
   <interval begin="720.00" end="780.00" id="emissions_e6" sampledSeconds="101.77" nVehEntered="1" nVehLeft="3" nVehSeen="3" meanSpeed="0.54" meanTimeLoss="32.71" meanOccupancy="7.20" maxOccupancy="12.41" meanMaxJamLengthInVehicles="1.48" meanMaxJamLengthInMeters="4.00" maxJamLengthInVehicles="2" maxJamLengthInMeters="5.41" jamLengthInVehiclesSum="89" jamLengthInMetersSum="239.76" meanHaltingDuration="61.00" maxHaltingDuration="61.00" haltingDurationSum="61.00" meanIntervalHaltingDuration="45.00" maxIntervalHaltingDuration="45.00" intervalHaltingDurationSum="45.00" startedHalts="0.00" meanVehicleNumber="1.72" maxVehicleNumber="3" />
   <interval begin="780.00" end="840.00" id="emissions_e6" sampledSeconds="42.00" nVehEntered="1" nVehLeft="0" nVehSeen="1" meanSpeed="0.99" meanTimeLoss="39.26" meanOccupancy="12.67" maxOccupancy="24.00" meanMaxJamLengthInVehicles="0.52" meanMaxJamLengthInMeters="4.24" maxJamLengthInVehicles="1" maxJamLengthInMeters="8.23" jamLengthInVehiclesSum="31" jamLengthInMetersSum="254.52" meanHaltingDuration="16.50" maxHaltingDuration="32.00" haltingDurationSum="33.00" meanIntervalHaltingDuration="16.50" maxIntervalHaltingDuration="32.00" intervalHaltingDurationSum="33.00" startedHalts="2.00" meanVehicleNumber="0.70" maxVehicleNumber="1" />
   <interval begin="840.00" end="900.00" id="emissions_e6" sampledSeconds="60.00" nVehEntered="0" nVehLeft="0" nVehSeen="1" meanSpeed="0.05" meanTimeLoss="59.82" meanOccupancy="13.63" maxOccupancy="16.42" meanMaxJamLengthInVehicles="1.00" meanMaxJamLengthInMeters="6.82" maxJamLengthInVehicles="1" maxJamLengthInMeters="8.21" jamLengthInVehiclesSum="60" jamLengthInMetersSum="408.96" meanHaltingDuration="92.00" maxHaltingDuration="92.00" haltingDurationSum="92.00" meanIntervalHaltingDuration="60.00" maxIntervalHaltingDuration="60.00" intervalHaltingDurationSum="60.00" startedHalts="0.00" meanVehicleNumber="1.00" maxVehicleNumber="1" />
   <interval begin="900.00" end="960.00" id="emissions_e6" sampledSeconds="60.00" nVehEntered="0" nVehLeft="0" nVehSeen="1" meanSpeed="0.00" meanTimeLoss="60.00" meanOccupancy="10.82" maxOccupancy="10.82" meanMaxJamLengthInVehicles="1.00" meanMaxJamLengthInMeters="5.41" maxJamLengthInVehicles="1" maxJamLengthInMeters="5.41" jamLengthInVehiclesSum="60" jamLengthInMetersSum="324.49" meanHaltingDuration="152.00" maxHaltingDuration="152.00" haltingDurationSum="152.00" meanIntervalHaltingDuration="60.00" maxIntervalHaltingDuration="60.00" intervalHaltingDurationSum="60.00" startedHalts="0.00" meanVehicleNumber="1.00" maxVehicleNumber="1" />
   <interval begin="960.00" end="1020.00" id="emissions_e6" sampledSeconds="77.00" nVehEntered="2" nVehLeft="1" nVehSeen="3" meanSpeed="0.42" meanTimeLoss="24.86" meanOccupancy="17.62" maxOccupancy="34.82" meanMaxJamLengthInVehicles="1.10" meanMaxJamLengthInMeters="6.91" maxJamLengthInVehicles="2" maxJamLengthInMeters="20.44" jamLengthInVehiclesSum="66" jamLengthInMetersSum="414.54" meanHaltingDuration="55.25" maxHaltingDuration="212.00" haltingDurationSum="221.00" meanIntervalHaltingDuration="17.25" maxIntervalHaltingDuration="60.00" intervalHaltingDurationSum="69.00" startedHalts="3.00" meanVehicleNumber="1.28" maxVehicleNumber="2" />
   <interval begin="1020.00" end="1080.00" id="emissions_e6" sampledSeconds="113.00" nVehEntered="0" nVehLeft="1" nVehSeen="2" meanSpeed="0.00" meanTimeLoss="56.50" meanOccupancy="32.02" maxOccupancy="34.82" meanMaxJamLengthInVehicles="1.88" meanMaxJamLengthInMeters="18.66" maxJamLengthInVehicles="2" maxJamLengthInMeters="20.41" jamLengthInVehiclesSum="113" jamLengthInMetersSum="1119.55" meanHaltingDuration="272.00" maxHaltingDuration="272.00" haltingDurationSum="272.00" meanIntervalHaltingDuration="60.00" maxIntervalHaltingDuration="60.00" intervalHaltingDurationSum="60.00" startedHalts="0.00" meanVehicleNumber="1.88" maxVehicleNumber="2" />
   <interval begin="1080.00" end="1140.00" id="emissions_e6" sampledSeconds="60.00" nVehEntered="0" nVehLeft="0" nVehSeen="1" meanSpeed="0.00" meanTimeLoss="60.00" meanOccupancy="10.82" maxOccupancy="10.82" meanMaxJamLengthInVehicles="1.00" meanMaxJamLengthInMeters="5.41" maxJamLengthInVehicles="1" maxJamLengthInMeters="5.41" jamLengthInVehiclesSum="60" jamLengthInMetersSum="324.49" meanHaltingDuration="332.00" maxHaltingDuration="332.00" haltingDurationSum="332.00" meanIntervalHaltingDuration="60.00" maxIntervalHaltingDuration="60.00" intervalHaltingDurationSum="60.00" startedHalts="0.00" meanVehicleNumber="1.00" maxVehicleNumber="1" />
   <interval begin="1140.00" end="1200.00" id="emissions_e6" sampledSeconds="60.00" nVehEntered="0" nVehLeft="0" nVehSeen="1" meanSpeed="0.05" meanTimeLoss="59.82" meanOccupancy="8.27" maxOccupancy="10.82" meanMaxJamLengthInVehicles="1.00" meanMaxJamLengthInMeters="4.13" maxJamLengthInVehicles="1" maxJamLengthInMeters="5.41" jamLengthInVehiclesSum="60" jamLengthInMetersSum="248.06" meanHaltingDuration="392.00" maxHaltingDuration="392.00" haltingDurationSum="392.00" meanIntervalHaltingDuration="60.00" maxIntervalHaltingDuration="60.00" intervalHaltingDurationSum="60.00" startedHalts="0.00" meanVehicleNumber="1.00" maxVehicleNumber="1" />
   <interval begin="1200.00" end="1260.00" id="emissions_e6" sampledSeconds="60.00" nVehEntered="0" nVehLeft="0" nVehSeen="1" meanSpeed="0.00" meanTimeLoss="60.00" meanOccupancy="5.21" maxOccupancy="5.21" meanMaxJamLengthInVehicles="1.00" meanMaxJamLengthInMeters="2.61" maxJamLengthInVehicles="1" maxJamLengthInMeters="2.61" jamLengthInVehiclesSum="60" jamLengthInMetersSum="156.44" meanHaltingDuration="452.00" maxHaltingDuration="452.00" haltingDurationSum="452.00" meanIntervalHaltingDuration="60.00" maxIntervalHaltingDuration="60.00" intervalHaltingDurationSum="60.00" startedHalts="0.00" meanVehicleNumber="1.00" maxVehicleNumber="1" />
   <interval begin="1260.00" end="1320.00" id="emissions_e6" sampledSeconds="77.00" nVehEntered="1" nVehLeft="0" nVehSeen="2" meanSpeed="0.58" meanTimeLoss="36.73" meanOccupancy="6.23" maxOccupancy="8.81" meanMaxJamLengthInVehicles="1.10" meanMaxJamLengthInMeters="2.89" maxJamLengthInVehicles="2" maxJamLengthInMeters="5.41" jamLengthInVehiclesSum="66" jamLengthInMetersSum="173.25" meanHaltingDuration="259.50" maxHaltingDuration="512.00" haltingDurationSum="519.00" meanIntervalHaltingDuration="33.50" maxIntervalHaltingDuration="60.00" intervalHaltingDurationSum="67.00" startedHalts="1.00" meanVehicleNumber="1.28" maxVehicleNumber="2" />
   <interval begin="1320.00" end="1380.00" id="emissions_e6" sampledSeconds="120.00" nVehEntered="0" nVehLeft="0" nVehSeen="2" meanSpeed="0.00" meanTimeLoss="60.00" meanOccupancy="8.81" maxOccupancy="8.81" meanMaxJamLengthInVehicles="2.00" meanMaxJamLengthInMeters="5.41" maxJamLengthInVehicles="2" maxJamLengthInMeters="5.41" jamLengthInVehiclesSum="120" jamLengthInMetersSum="324.50" meanHaltingDuration="319.50" maxHaltingDuration="572.00" haltingDurationSum="639.00" meanIntervalHaltingDuration="60.00" maxIntervalHaltingDuration="60.00" intervalHaltingDurationSum="120.00" startedHalts="0.00" meanVehicleNumber="2.00" maxVehicleNumber="2" />
   <interval begin="1380.00" end="1440.00" id="emissions_e6" sampledSeconds="120.00" nVehEntered="0" nVehLeft="0" nVehSeen="2" meanSpeed="0.00" meanTimeLoss="60.00" meanOccupancy="8.81" maxOccupancy="8.81" meanMaxJamLengthInVehicles="2.00" meanMaxJamLengthInMeters="5.41" maxJamLengthInVehicles="2" maxJamLengthInMeters="5.41" jamLengthInVehiclesSum="120" jamLengthInMetersSum="324.50" meanHaltingDuration="379.50" maxHaltingDuration="632.00" haltingDurationSum="759.00" meanIntervalHaltingDuration="60.00" maxIntervalHaltingDuration="60.00" intervalHaltingDurationSum="120.00" startedHalts="0.00" meanVehicleNumber="2.00" maxVehicleNumber="2" />
   <interval begin="1440.00" end="1500.00" id="emissions_e6" sampledSeconds="113.00" nVehEntered="2" nVehLeft="2" nVehSeen="4" meanSpeed="0.44" meanTimeLoss="27.34" meanOccupancy="11.91" maxOccupancy="30.36" meanMaxJamLengthInVehicles="1.67" meanMaxJamLengthInMeters="4.08" maxJamLengthInVehicles="2" maxJamLengthInMeters="5.41" jamLengthInVehiclesSum="100" jamLengthInMetersSum="244.60" meanHaltingDuration="63.00" maxHaltingDuration="187.00" haltingDurationSum="189.00" meanIntervalHaltingDuration="20.67" maxIntervalHaltingDuration="60.00" intervalHaltingDurationSum="62.00" startedHalts="2.00" meanVehicleNumber="1.88" maxVehicleNumber="3" />
   <interval begin="1500.00" end="1560.00" id="emissions_e6" sampledSeconds="122.00" nVehEntered="1" nVehLeft="1" nVehSeen="3" meanSpeed="0.04" meanTimeLoss="40.53" meanOccupancy="28.40" maxOccupancy="51.60" meanMaxJamLengthInVehicles="1.97" meanMaxJamLengthInMeters="16.30" maxJamLengthInVehicles="2" maxJamLengthInMeters="16.81" jamLengthInVehiclesSum="118" jamLengthInMetersSum="978.07" meanHaltingDuration="102.33" maxHaltingDuration="247.00" haltingDurationSum="307.00" meanIntervalHaltingDuration="40.00" maxIntervalHaltingDuration="60.00" intervalHaltingDurationSum="120.00" startedHalts="2.00" meanVehicleNumber="2.03" maxVehicleNumber="3" />
   <interval begin="1560.00" end="1620.00" id="emissions_e6" sampledSeconds="164.00" nVehEntered="2" nVehLeft="0" nVehSeen="4" meanSpeed="0.19" meanTimeLoss="40.43" meanOccupancy="40.78" maxOccupancy="55.20" meanMaxJamLengthInVehicles="2.52" meanMaxJamLengthInMeters="23.13" maxJamLengthInVehicles="4" maxJamLengthInMeters="34.62" jamLengthInVehiclesSum="151" jamLengthInMetersSum="1387.78" meanHaltingDuration="92.00" maxHaltingDuration="307.00" haltingDurationSum="460.00" meanIntervalHaltingDuration="30.80" maxIntervalHaltingDuration="60.00" intervalHaltingDurationSum="154.00" startedHalts="3.00" meanVehicleNumber="2.73" maxVehicleNumber="4" />
   <interval begin="1620.00" end="1680.00" id="emissions_e6" sampledSeconds="247.00" nVehEntered="1" nVehLeft="0" nVehSeen="5" meanSpeed="0.05" meanTimeLoss="49.21" meanOccupancy="55.62" maxOccupancy="58.80" meanMaxJamLengthInVehicles="4.03" meanMaxJamLengthInMeters="34.70" maxJamLengthInVehicles="5" maxJamLengthInMeters="37.43" jamLengthInVehiclesSum="242" jamLengthInMetersSum="2081.82" meanHaltingDuration="140.40" maxHaltingDuration="367.00" haltingDurationSum="702.00" meanIntervalHaltingDuration="48.60" maxIntervalHaltingDuration="60.00" intervalHaltingDurationSum="243.00" startedHalts="1.00" meanVehicleNumber="4.12" maxVehicleNumber="5" />
   <interval begin="1680.00" end="1740.00" id="emissions_e6" sampledSeconds="296.00" nVehEntered="1" nVehLeft="1" nVehSeen="6" meanSpeed="0.14" meanTimeLoss="48.81" meanOccupancy="57.20" maxOccupancy="58.80" meanMaxJamLengthInVehicles="4.62" meanMaxJamLengthInMeters="34.56" maxJamLengthInVehicles="5" maxJamLengthInMeters="37.57" jamLengthInVehiclesSum="279" jamLengthInMetersSum="2077.31" meanHaltingDuration="111.12" maxHaltingDuration="427.00" haltingDurationSum="889.00" meanIntervalHaltingDuration="34.00" maxIntervalHaltingDuration="60.00" intervalHaltingDurationSum="272.00" startedHalts="4.00" meanVehicleNumber="4.93" maxVehicleNumber="5" />
   <interval begin="1740.00" end="1800.00" id="emissions_e6" sampledSeconds="284.38" nVehEntered="0" nVehLeft="1" nVehSeen="5" meanSpeed="0.05" meanTimeLoss="56.67" meanOccupancy="57.65" maxOccupancy="58.80" meanMaxJamLengthInVehicles="4.75" meanMaxJamLengthInMeters="36.32" maxJamLengthInVehicles="5" maxJamLengthInMeters="38.21" jamLengthInVehiclesSum="285" jamLengthInMetersSum="2178.96" meanHaltingDuration="151.00" maxHaltingDuration="299.00" haltingDurationSum="604.00" meanIntervalHaltingDuration="60.00" maxIntervalHaltingDuration="60.00" intervalHaltingDurationSum="240.00" startedHalts="0.00" meanVehicleNumber="4.75" maxVehicleNumber="5" />
   <interval begin="1800.00" end="1860.00" id="emissions_e6" sampledSeconds="240.00" nVehEntered="0" nVehLeft="0" nVehSeen="4" meanSpeed="0.00" meanTimeLoss="60.00" meanOccupancy="55.20" maxOccupancy="55.20" meanMaxJamLengthInVehicles="4.00" meanMaxJamLengthInMeters="32.60" maxJamLengthInVehicles="4" maxJamLengthInMeters="32.60" jamLengthInVehiclesSum="240" jamLengthInMetersSum="1956.18" meanHaltingDuration="211.00" maxHaltingDuration="359.00" haltingDurationSum="844.00" meanIntervalHaltingDuration="60.00" maxIntervalHaltingDuration="60.00" intervalHaltingDurationSum="240.00" startedHalts="0.00" meanVehicleNumber="4.00" maxVehicleNumber="4" />
   <interval begin="1860.00" end="1920.00" id="emissions_e6" sampledSeconds="240.00" nVehEntered="0" nVehLeft="0" nVehSeen="4" meanSpeed="0.00" meanTimeLoss="60.00" meanOccupancy="55.20" maxOccupancy="55.20" meanMaxJamLengthInVehicles="4.00" meanMaxJamLengthInMeters="32.60" maxJamLengthInVehicles="4" maxJamLengthInMeters="32.60" jamLengthInVehiclesSum="240" jamLengthInMetersSum="1956.18" meanHaltingDuration="271.00" maxHaltingDuration="419.00" haltingDurationSum="1084.00" meanIntervalHaltingDuration="60.00" maxIntervalHaltingDuration="60.00" intervalHaltingDurationSum="240.00" startedHalts="0.00" meanVehicleNumber="4.00" maxVehicleNumber="4" />
   <interval begin="1920.00" end="1980.00" id="emissions_e6" sampledSeconds="240.00" nVehEntered="0" nVehLeft="0" nVehSeen="4" meanSpeed="0.00" meanTimeLoss="60.00" meanOccupancy="55.20" maxOccupancy="55.20" meanMaxJamLengthInVehicles="4.00" meanMaxJamLengthInMeters="32.60" maxJamLengthInVehicles="4" maxJamLengthInMeters="32.60" jamLengthInVehiclesSum="240" jamLengthInMetersSum="1956.18" meanHaltingDuration="331.00" maxHaltingDuration="479.00" haltingDurationSum="1324.00" meanIntervalHaltingDuration="60.00" maxIntervalHaltingDuration="60.00" intervalHaltingDurationSum="240.00" startedHalts="0.00" meanVehicleNumber="4.00" maxVehicleNumber="4" />
   <interval begin="1980.00" end="2040.00" id="emissions_e6" sampledSeconds="240.00" nVehEntered="1" nVehLeft="1" nVehSeen="5" meanSpeed="0.06" meanTimeLoss="47.76" meanOccupancy="55.20" maxOccupancy="55.20" meanMaxJamLengthInVehicles="3.90" meanMaxJamLengthInMeters="31.11" maxJamLengthInVehicles="4" maxJamLengthInMeters="32.69" jamLengthInVehiclesSum="234" jamLengthInMetersSum="1866.33" meanHaltingDuration="252.40" maxHaltingDuration="539.00" haltingDurationSum="1262.00" meanIntervalHaltingDuration="43.60" maxIntervalHaltingDuration="60.00" intervalHaltingDurationSum="218.00" startedHalts="2.00" meanVehicleNumber="4.00" maxVehicleNumber="4" />
   <interval begin="2040.00" end="2100.00" id="emissions_e6" sampledSeconds="252.00" nVehEntered="2" nVehLeft="1" nVehSeen="6" meanSpeed="0.06" meanTimeLoss="41.82" meanOccupancy="60.00" maxOccupancy="79.20" meanMaxJamLengthInVehicles="4.17" meanMaxJamLengthInMeters="35.30" maxJamLengthInVehicles="5" maxJamLengthInMeters="48.62" jamLengthInVehiclesSum="250" jamLengthInMetersSum="2118.27" meanHaltingDuration="302.40" maxHaltingDuration="599.00" haltingDurationSum="1512.00" meanIntervalHaltingDuration="50.20" maxIntervalHaltingDuration="60.00" intervalHaltingDurationSum="251.00" startedHalts="2.00" meanVehicleNumber="4.20" maxVehicleNumber="5" />
   <interval begin="2100.00" end="2160.00" id="emissions_e6" sampledSeconds="300.00" nVehEntered="0" nVehLeft="0" nVehSeen="5" meanSpeed="0.00" meanTimeLoss="60.00" meanOccupancy="79.20" maxOccupancy="79.20" meanMaxJamLengthInVehicles="5.00" meanMaxJamLengthInMeters="47.60" maxJamLengthInVehicles="5" maxJamLengthInMeters="47.60" jamLengthInVehiclesSum="300" jamLengthInMetersSum="2856.25" meanHaltingDuration="362.40" maxHaltingDuration="659.00" haltingDurationSum="1812.00" meanIntervalHaltingDuration="60.00" maxIntervalHaltingDuration="60.00" intervalHaltingDurationSum="300.00" startedHalts="0.00" meanVehicleNumber="5.00" maxVehicleNumber="5" />
   <interval begin="2160.00" end="2220.00" id="emissions_e6" sampledSeconds="300.00" nVehEntered="0" nVehLeft="0" nVehSeen="5" meanSpeed="0.00" meanTimeLoss="60.00" meanOccupancy="79.20" maxOccupancy="79.20" meanMaxJamLengthInVehicles="5.00" meanMaxJamLengthInMeters="47.60" maxJamLengthInVehicles="5" maxJamLengthInMeters="47.60" jamLengthInVehiclesSum="300" jamLengthInMetersSum="2856.25" meanHaltingDuration="422.40" maxHaltingDuration="719.00" haltingDurationSum="2112.00" meanIntervalHaltingDuration="60.00" maxIntervalHaltingDuration="60.00" intervalHaltingDurationSum="300.00" startedHalts="0.00" meanVehicleNumber="5.00" maxVehicleNumber="5" />
   <interval begin="2220.00" end="2280.00" id="emissions_e6" sampledSeconds="300.00" nVehEntered="0" nVehLeft="0" nVehSeen="5" meanSpeed="0.00" meanTimeLoss="60.00" meanOccupancy="79.20" maxOccupancy="79.20" meanMaxJamLengthInVehicles="5.00" meanMaxJamLengthInMeters="47.60" maxJamLengthInVehicles="5" maxJamLengthInMeters="47.60" jamLengthInVehiclesSum="300" jamLengthInMetersSum="2856.25" meanHaltingDuration="482.40" maxHaltingDuration="779.00" haltingDurationSum="2412.00" meanIntervalHaltingDuration="60.00" maxIntervalHaltingDuration="60.00" intervalHaltingDurationSum="300.00" startedHalts="0.00" meanVehicleNumber="5.00" maxVehicleNumber="5" />
   <interval begin="2280.00" end="2340.00" id="emissions_e6" sampledSeconds="300.00" nVehEntered="1" nVehLeft="1" nVehSeen="6" meanSpeed="0.01" meanTimeLoss="49.97" meanOccupancy="79.20" maxOccupancy="79.20" meanMaxJamLengthInVehicles="4.98" meanMaxJamLengthInMeters="47.36" maxJamLengthInVehicles="5" maxJamLengthInMeters="47.74" jamLengthInVehiclesSum="299" jamLengthInMetersSum="2841.39" meanHaltingDuration="498.80" maxHaltingDuration="839.00" haltingDurationSum="2494.00" meanIntervalHaltingDuration="54.60" maxIntervalHaltingDuration="60.00" intervalHaltingDurationSum="273.00" startedHalts="1.00" meanVehicleNumber="5.00" maxVehicleNumber="5" />
   <interval begin="2340.00" end="2400.00" id="emissions_e6" sampledSeconds="300.00" nVehEntered="0" nVehLeft="0" nVehSeen="5" meanSpeed="0.05" meanTimeLoss="59.79" meanOccupancy="78.05" maxOccupancy="79.20" meanMaxJamLengthInVehicles="4.97" meanMaxJamLengthInMeters="46.88" maxJamLengthInVehicles="5" maxJamLengthInMeters="47.61" jamLengthInVehiclesSum="298" jamLengthInMetersSum="2813.06" meanHaltingDuration="465.50" maxHaltingDuration="886.00" haltingDurationSum="2793.00" meanIntervalHaltingDuration="49.83" maxIntervalHaltingDuration="60.00" intervalHaltingDurationSum="299.00" startedHalts="1.00" meanVehicleNumber="5.00" maxVehicleNumber="5" />
   <interval begin="2400.00" end="2460.00" id="emissions_e6" sampledSeconds="300.00" nVehEntered="0" nVehLeft="0" nVehSeen="5" meanSpeed="0.00" meanTimeLoss="60.00" meanOccupancy="73.61" maxOccupancy="73.61" meanMaxJamLengthInVehicles="5.00" meanMaxJamLengthInMeters="44.81" maxJamLengthInVehicles="5" maxJamLengthInMeters="44.83" jamLengthInVehiclesSum="300" jamLengthInMetersSum="2688.60" meanHaltingDuration="441.40" maxHaltingDuration="763.00" haltingDurationSum="2207.00" meanIntervalHaltingDuration="60.00" maxIntervalHaltingDuration="60.00" intervalHaltingDurationSum="300.00" startedHalts="0.00" meanVehicleNumber="5.00" maxVehicleNumber="5" />
   <interval begin="2460.00" end="2520.00" id="emissions_e6" sampledSeconds="302.00" nVehEntered="1" nVehLeft="0" nVehSeen="6" meanSpeed="0.01" meanTimeLoss="50.31" meanOccupancy="73.73" maxOccupancy="77.21" meanMaxJamLengthInVehicles="5.00" meanMaxJamLengthInMeters="44.81" maxJamLengthInVehicles="5" maxJamLengthInMeters="44.81" jamLengthInVehiclesSum="300" jamLengthInMetersSum="2688.56" meanHaltingDuration="418.00" maxHaltingDuration="823.00" haltingDurationSum="2508.00" meanIntervalHaltingDuration="50.17" maxIntervalHaltingDuration="60.00" intervalHaltingDurationSum="301.00" startedHalts="1.00" meanVehicleNumber="5.03" maxVehicleNumber="6" />
   <interval begin="2520.00" end="2580.00" id="emissions_e6" sampledSeconds="360.00" nVehEntered="0" nVehLeft="0" nVehSeen="6" meanSpeed="0.00" meanTimeLoss="60.00" meanOccupancy="77.21" maxOccupancy="77.21" meanMaxJamLengthInVehicles="6.00" meanMaxJamLengthInMeters="47.61" maxJamLengthInVehicles="6" maxJamLengthInMeters="47.62" jamLengthInVehiclesSum="360" jamLengthInMetersSum="2856.64" meanHaltingDuration="478.00" maxHaltingDuration="883.00" haltingDurationSum="2868.00" meanIntervalHaltingDuration="60.00" maxIntervalHaltingDuration="60.00" intervalHaltingDurationSum="360.00" startedHalts="0.00" meanVehicleNumber="6.00" maxVehicleNumber="6" />
   <interval begin="2580.00" end="2640.00" id="emissions_e6" sampledSeconds="354.00" nVehEntered="1" nVehLeft="1" nVehSeen="7" meanSpeed="0.05" meanTimeLoss="50.41" meanOccupancy="74.81" maxOccupancy="77.21" meanMaxJamLengthInVehicles="5.78" meanMaxJamLengthInMeters="45.83" maxJamLengthInVehicles="6" maxJamLengthInMeters="48.20" jamLengthInVehiclesSum="347" jamLengthInMetersSum="2749.96" meanHaltingDuration="415.00" maxHaltingDuration="943.00" haltingDurationSum="2905.00" meanIntervalHaltingDuration="44.28" maxIntervalHaltingDuration="60.00" intervalHaltingDurationSum="310.00" startedHalts="2.00" meanVehicleNumber="5.90" maxVehicleNumber="6" />